Ar_FCC_relaxed.lammps (written by ASE) 

4 	 atoms 
1  atom types
0.0      5.2522999999999991  xlo xhi
0.0      5.2522999999999991  ylo yhi
0.0      5.2522999999999991  zlo zhi


Atoms 

     1   1                       0                       0                       0
     2   1      2.6261499999999991      2.6261499999999991                       0
     3   1      2.6261499999999991                       0      2.6261499999999991
     4   1                       0      2.6261499999999991      2.6261499999999991
