LAMMPS (29 Sep 2021 - Update 2)
OMP_NUM_THREADS environment is not set. Defaulting to 1 thread. (src/comm.cpp:98)
  using 1 OpenMP thread(s) per MPI task
# LAMMPS input script for Argon with Lennard-Jones potential
units       metal
atom_style  atomic

# Create a box and atoms
lattice         fcc 5.25121198451
Lattice spacing in x,y,z = 5.2512120 5.2512120 5.2512120
region          box block 0 1 0 1 0 1
create_box      1 box
Created orthogonal box = (0.0000000 0.0000000 0.0000000) to (5.2512120 5.2512120 5.2512120)
  1 by 1 by 1 MPI processor grid
create_atoms    1 box
Created 4 atoms
  using lattice units in orthogonal box = (0.0000000 0.0000000 0.0000000) to (5.2512120 5.2512120 5.2512120)
  create_atoms CPU = 0.000 seconds

mass 1 39.9480

write_data      Ar_FCC_init.lammps
System init for write_data ...
WARNING: Communication cutoff is 0.0. No ghost atoms will be generated. Atoms may get lost. (src/comm_brick.cpp:209)

# Define the Lennard-Jones potential
pair_style      lj/cut 20
pair_coeff      1 1 0.010325947230266126 3.405 20

# Define thermodynamic output
thermo          1000
thermo_style    custom step temp pe etotal press vol

fix 1 all box/relax iso 0.0 vmax 0.001
min_style cg
minimize 1.0e-4 1.0e-6 100 1000
WARNING: Using 'neigh_modify every 1 delay 0 check yes' setting during minimization (src/min.cpp:188)
Neighbor list info ...
  update every 1 steps, delay 0 steps, check yes
  max neighbors/atom: 2000, page size: 100000
  master list distance cutoff = 22
  ghost atom cutoff = 22
  binsize = 11, bins = 1 1 1
  1 neighbor lists, perpetual/occasional/extra = 1 0 0
  (1) pair lj/cut, perpetual
      attributes: half, newton on
      pair build: half/bin/atomonly/newton
      stencil: half/bin/3d
      bin: standard
Per MPI rank memory allocation (min/avg/max) = 4.246 | 4.246 | 4.246 Mbytes
Step Temp PotEng TotEng Press Volume 
       0            0   -0.3538425   -0.3538425    10.983401    144.80336 
       1            0  -0.35384267  -0.35384267  -0.22967023    144.85516 
Loop time of 0.000407915 on 1 procs for 1 steps with 4 atoms

100.3% CPU use with 1 MPI tasks x 1 OpenMP threads

Minimization stats:
  Stopping criterion = energy tolerance
  Energy initial, next-to-last, final = 
    -0.353842495248974 -0.353842495248974 -0.353842668981529
  Force two-norm initial, final = 0.0029780117 6.2287054e-05
  Force max component initial, final = 0.0029780117 6.2287054e-05
  Final line search alpha, max atom move = 0.33579451 2.0915651e-05
  Iterations, force evaluations = 1 2

MPI task timing breakdown:
Section |  min time  |  avg time  |  max time  |%varavg| %total
---------------------------------------------------------------
Pair    | 0.00024233 | 0.00024233 | 0.00024233 |   0.0 | 59.41
Neigh   | 0          | 0          | 0          |   0.0 |  0.00
Comm    | 4.6464e-05 | 4.6464e-05 | 4.6464e-05 |   0.0 | 11.39
Output  | 0          | 0          | 0          |   0.0 |  0.00
Modify  | 0          | 0          | 0          |   0.0 |  0.00
Other   |            | 0.0001191  |            |       | 29.20

Nlocal:        4.00000 ave           4 max           4 min
Histogram: 1 0 0 0 0 0 0 0 0 0
Nghost:        3426.00 ave        3426 max        3426 min
Histogram: 1 0 0 0 0 0 0 0 0 0
Neighs:        2504.00 ave        2504 max        2504 min
Histogram: 1 0 0 0 0 0 0 0 0 0

Total # of neighbors = 2504
Ave neighs/atom = 626.00000
Neighbor list builds = 0
Dangerous builds = 0
write_data      Ar_FCC_relaxed.lammps
System init for write_data ...

unfix 1
replicate 2 2 2
Replicating atoms ...
  orthogonal box = (-0.00031302801 -0.00031302801 -0.00031302801) to (10.503363 10.503363 10.503363)
  1 by 1 by 1 MPI processor grid
  32 atoms
  replicate CPU = 0.000 seconds
timestep 0.001

#
variable Tmin equal 10
variable Tmax equal 100
variable Tstep equal 10
variable Tloop equal (${Tmax}-${Tmin})/${Tstep}+1
variable Tloop equal (100-${Tmin})/${Tstep}+1
variable Tloop equal (100-10)/${Tstep}+1
variable Tloop equal (100-10)/10+1

variable i loop ${Tloop}
variable i loop 10
label loop

variable Tanneal equal ${Tmin}+(${i}-1)*${Tstep}
variable Tanneal equal 10+(${i}-1)*${Tstep}
variable Tanneal equal 10+(1-1)*${Tstep}
variable Tanneal equal 10+(1-1)*10
variable STEP equal step
variable T equal temp
variable PE equal pe
variable Eperatom equal pe/atoms
variable LAT equal (vol)^(1/3)/2

if "${i} == 1" then   "velocity all create ${Tanneal} 5534 dist gaussian"
velocity all create ${Tanneal} 5534 dist gaussian
velocity all create 10 5534 dist gaussian
fix 1 all npt temp ${Tanneal} ${Tanneal} 1 iso 0 0 100.0
fix 1 all npt temp 10 ${Tanneal} 1 iso 0 0 100.0
fix 1 all npt temp 10 10 1 iso 0 0 100.0
fix 2 all print 1000 "${STEP} ${T} ${PE} ${Eperatom} ${LAT}" file 2_${Tanneal}.dat screen no
fix 2 all print 1000 "${STEP} ${T} ${PE} ${Eperatom} ${LAT}" file 2_10.dat screen no

run 250000
Per MPI rank memory allocation (min/avg/max) = 3.155 | 3.155 | 3.155 Mbytes
Step Temp PotEng TotEng Press Volume 
       1           10   -2.8307414   -2.7906707    36.703915    1158.8413 
    1000    8.8234161    -2.817833    -2.782477    108.27269    1159.5731 
    2000    8.9887507   -2.8081968   -2.7721783    115.49433     1161.835 
    3000    8.0087412   -2.7905125   -2.7584209    142.17626    1165.5013 
    4000    12.171903   -2.7948925   -2.7461189   -2.2575363    1170.2118 
    5000    11.549817   -2.7860223   -2.7397414   -71.356539     1175.316 
    6000     13.57025    -2.796699   -2.7423221   -258.76092    1179.8762 
    7000    10.099915    -2.791758    -2.751287   -304.39235    1182.7712 
    8000    8.2528156   -2.7892521   -2.7561825   -302.72111      1183.07 
    9000    8.2016444   -2.7840266   -2.7511621   -206.18849    1180.5524 
   10000    9.0788122   -2.7713071   -2.7349277    8.3565741    1176.0137 
   11000    11.819278   -2.7855966    -2.738236    49.841934    1170.9447 
   12000     11.23565   -2.7938781   -2.7488561    103.94949    1166.3926 
   13000    9.4551397   -2.7918466   -2.7539593    200.23559    1163.0369 
   14000    10.971149   -2.7978659   -2.7539038    203.02191    1161.4499 
   15000    9.7454206   -2.7896911   -2.7506406    247.05098     1161.986 
   16000    12.112563   -2.7823621   -2.7338262    235.20067    1164.6795 
   17000    10.181747    -2.771439   -2.7306401      185.352     1169.413 
   18000    10.372736   -2.7857969   -2.7442327   -74.190351    1175.2372 
   19000     10.19958   -2.7906076   -2.7497373   -242.10411    1180.4368 
   20000    8.8752216   -2.7856042   -2.7500406   -286.83526    1183.6298 
   21000    10.186865   -2.7861931   -2.7453737   -301.43068     1184.103 
   22000     13.16094   -2.7834066   -2.7306699   -217.67498    1181.9504 
   23000    12.197482   -2.7786599   -2.7297838   -80.448398    1178.1085 
   24000    11.998235   -2.7926804   -2.7446027   -67.393777    1173.4596 
   25000    11.032655   -2.7932756    -2.749067    50.161019    1168.6017 
   26000     12.15689   -2.8005337   -2.7518202    109.21185    1164.4197 
   27000    10.619128    -2.797084   -2.7545325     203.5317     1161.752 
   28000    10.290004   -2.7980485   -2.7568158    213.23975    1161.1072 
   29000     8.186616   -2.7878717   -2.7550674    244.26739    1162.5649 
   30000     10.50764   -2.7875727   -2.7454679     166.3252    1165.8815 
   31000    12.138015   -2.7874203   -2.7387825    47.188941    1170.6231 
   32000    11.210863    -2.789133   -2.7442104   -111.14973    1175.9343 
   33000    8.4435073   -2.7923167    -2.758483   -253.74898    1180.4218 
   34000    7.6917467   -2.7887139   -2.7578925    -287.3226    1182.6549 
   35000    9.7344303   -2.7900665     -2.75106   -282.57099    1182.1124 
   36000    8.7977496   -2.7804752   -2.7452221    -135.3769    1179.1407 
   37000    8.6818373   -2.7790712   -2.7442825   -11.371914     1174.614 
   38000    10.615132   -2.7900186   -2.7474831     45.32438    1169.5828 
   39000    9.2522655   -2.7952828   -2.7582084    120.15277    1165.0575 
   40000    7.8653745   -2.8013107   -2.7697937    164.75676    1161.6678 
   41000    7.4929129    -2.793635   -2.7636104    270.49481    1159.8396 
   42000    8.8578951   -2.7888609   -2.7533667    301.59365    1160.1762 
   43000    8.7801282   -2.7831199   -2.7479373     268.0031    1162.9285 
   44000    10.883872     -2.78987   -2.7462576    98.257007    1167.6809 
   45000    9.9430083   -2.7891612    -2.749319   -49.611978    1173.4147 
   46000    7.8393384   -2.7907014   -2.7592886   -202.99061     1178.723 
   47000    7.4767126   -2.7908591   -2.7608994   -290.39218    1182.1089 
   48000    9.6192226   -2.7877093   -2.7491645   -278.88204    1182.7532 
   49000    11.046058    -2.786113   -2.7418507   -214.77235    1180.8736 
   50000     10.25084    -2.784769   -2.7436932   -108.37941    1177.1465 
   51000    10.768361   -2.7937674   -2.7506178   -51.244645    1172.3678 
   52000    8.9251504   -2.7962496   -2.7604859    54.713648    1167.3753 
   53000    8.1269841   -2.7998866   -2.7673213    144.02414    1162.9612 
   54000    7.0107207   -2.7963784    -2.768286    248.70963    1159.8742 
   55000    10.907504   -2.7987275   -2.7550205    274.31144    1158.8152 
   56000    10.309715   -2.7871551   -2.7458434    314.49184    1160.4206 
   57000    12.381698   -2.7935535   -2.7439392    160.16761    1164.6685 
   58000    9.4938492   -2.7877771   -2.7497347    34.788618    1170.6638 
   59000    9.0511435   -2.7958452   -2.7595767   -187.76868    1176.8627 
   60000    7.8314887   -2.7927851   -2.7614038   -290.78639    1181.5369 
   61000     9.345605   -2.7824132   -2.7449648   -260.58487    1183.5956 
   62000    11.758955    -2.786008   -2.7388892   -264.11172    1183.0455 
   63000    9.5796756   -2.7816301   -2.7432437   -170.93039    1180.2678 
   64000     8.790096   -2.7877705    -2.752548   -102.37206     1175.754 
   65000    8.2342555   -2.7916247   -2.7586295     11.20468    1170.2224 
   66000     7.830606   -2.7880212   -2.7566434    185.68149    1164.7174 
   67000    12.019863   -2.7878227   -2.7396583    310.74997     1160.595 
   68000    12.344254   -2.7868863   -2.7374221    353.17199    1159.2604 
   69000    11.795192   -2.7967024   -2.7494383    229.06093    1161.0856 
   70000    10.508951   -2.7982878   -2.7561778    101.18053    1165.2938 
   71000    8.9462712   -2.7911537   -2.7553054    3.3920485    1170.6918 
   72000    7.4094981   -2.7799353    -2.750245   -57.445064     1176.084 
   73000    11.228059   -2.7892303   -2.7442388   -226.19864    1180.4365 
   74000    9.4277771   -2.7784485   -2.7406708   -219.48584    1182.9624 
   75000    10.460037   -2.7750702   -2.7331561   -192.58538    1183.2627 
   76000    12.003283   -2.7829599    -2.734862   -203.38555    1181.5003 
   77000    9.0568413   -2.7844695   -2.7481781   -140.91091    1177.9933 
   78000    7.7046428   -2.7870853   -2.7562123     -36.1042     1173.107 
   79000    8.9694811   -2.7923325   -2.7563912     74.91461     1167.668 
   80000    12.405836   -2.7963688   -2.7466578    184.14094    1162.8989 
   81000    13.022973   -2.7871213   -2.7349374    323.87031    1160.1949 
   82000    12.052587   -2.7892027   -2.7409072    294.54297    1160.5127 
   83000    9.1176563   -2.7872716   -2.7507366    219.76418    1163.5967 
   84000    9.5237857   -2.7904205    -2.752258    71.715995    1168.4539 
   85000    8.7582577    -2.785884   -2.7507891   -41.898933    1173.9295 
   86000     11.45765    -2.791143   -2.7452315   -199.74586    1178.8413 
   87000    12.037317   -2.7834961   -2.7352618   -226.49947    1182.2832 
   88000     10.85241   -2.7745221   -2.7310358   -205.19809    1183.7923 
   89000    11.328885   -2.7915714   -2.7461758   -309.27133     1183.144 
   90000     8.594153   -2.7890566   -2.7546193   -221.03217    1180.0502 
   91000    7.5964816   -2.7837973   -2.7533578   -54.043431    1174.9131 
   92000     10.43443   -2.7867998   -2.7449884    84.887519    1168.9396 
   93000    11.504933    -2.780384    -2.734283    271.74992    1163.7622 
   94000    11.866258   -2.7876461   -2.7400972    297.52178    1160.8524 
   95000    8.7323666   -2.7920598   -2.7570686    264.56452    1160.6313 
   96000    8.2821409   -2.7921719   -2.7589848    208.01992    1162.6357 
   97000    8.5127318   -2.7866812   -2.7525701    150.08156    1166.3227 
   98000    10.815652   -2.7857453   -2.7424063    37.489312    1171.0704 
   99000    11.436777   -2.7864041   -2.7405762   -95.402603    1176.1235 
  100000    8.0873891   -2.7825499   -2.7501433   -185.66019    1180.4346 
  101000    7.5048348   -2.7926942   -2.7626219   -319.25083    1182.6951 
  102000    8.9627061   -2.7941776   -2.7582635    -309.2766    1182.0169 
  103000    8.3493566   -2.7824248   -2.7489684   -141.34127    1178.6856 
  104000    10.569149   -2.7860753   -2.7437241   -35.366025    1173.7615 
  105000    10.870836   -2.7883467   -2.7447866    85.127476     1168.539 
  106000    9.5287453   -2.7942439   -2.7560616    154.72748    1164.1578 
  107000    7.2502868    -2.794535   -2.7654826    223.52144    1161.2264 
  108000    7.8319987   -2.7926117   -2.7612284    269.66584    1160.1043 
  109000    8.0960566   -2.7859266   -2.7534852    291.86335    1161.1667 
  110000     10.97517   -2.7926704   -2.7486922    167.72585    1164.4175 
  111000    10.298665   -2.7887576   -2.7474902    61.802963    1169.2867 
  112000    9.9913047   -2.7890199   -2.7489841   -84.606798    1174.7148 
  113000    8.7270271   -2.7928265   -2.7578568   -234.04006      1179.41 
  114000    8.3744124   -2.7948859   -2.7613291    -315.2918    1182.0565 
  115000    10.132161     -2.79293   -2.7523298   -293.64518    1181.9476 
  116000    12.025598   -2.7910821   -2.7428947   -209.34569    1179.3993 
  117000    11.151774   -2.7874488   -2.7427629   -81.618883    1175.2978 
  118000    7.2252409   -2.7781163   -2.7491643    95.928618    1170.5839 
  119000    7.9451948   -2.7928839    -2.761047    107.85578    1166.1007 
  120000    8.7093056   -2.8011943   -2.7662955    147.63214    1162.4783 
  121000     11.47681   -2.7988886   -2.7529003    229.99607    1160.3557 
  122000    11.375083   -2.7873709   -2.7417902    309.68489    1160.6196 
  123000     9.574429   -2.7851988   -2.7468335    238.82674    1163.5803 
  124000    9.1896198   -2.7923932   -2.7555698     56.84931    1168.4108 
  125000    10.004203    -2.798959   -2.7588715   -130.62121    1173.7317 
  126000    7.9003558   -2.7837448   -2.7520875   -141.35982    1178.2264 
  127000    9.8983343   -2.7778326   -2.7381694   -162.75788     1181.138 
  128000    13.123409   -2.7906769   -2.7380906   -273.93106    1182.2517 
  129000    9.9816453   -2.7848244   -2.7448273   -221.64064    1181.3377 
  130000    9.1220146   -2.7869752   -2.7504227   -166.43524    1178.3935 
  131000    8.8414645   -2.7870592   -2.7516308   -52.779543    1173.8961 
  132000    10.333343   -2.7922802   -2.7508738    47.864553    1168.8087 
  133000    10.858284   -2.7933363   -2.7498264    160.47999    1164.3078 
  134000    10.283853   -2.7907626   -2.7495546    254.94765      1161.43 
  135000    10.123425   -2.7931782    -2.752613      254.027     1160.814 
  136000    9.2982162   -2.7970017   -2.7597432    178.90564    1162.4706 
  137000    6.7735027   -2.7888425   -2.7617007    141.36009    1165.7978 
  138000    9.7999517   -2.7904027   -2.7511337    29.208002    1169.9955 
  139000    10.905942   -2.7854657   -2.7417649   -45.031619    1174.4339 
  140000    11.283077   -2.7878028   -2.7425908   -164.72968    1178.4295 
  141000    9.1277345   -2.7851547   -2.7485793   -220.94446    1181.0685 
  142000    8.9517565   -2.7946566   -2.7587863   -302.06544    1181.5575 
  143000     8.078945   -2.8017981   -2.7694253   -301.59273    1179.4357 
  144000    7.7122617   -2.7952801   -2.7643765   -139.36432    1174.8645 
  145000    10.347159    -2.795166   -2.7537043    19.517155    1169.0613 
  146000    11.573877   -2.7954298   -2.7490525    167.06108    1163.6788 
  147000    12.679608   -2.7958261   -2.7450181    262.60473    1160.1132 
  148000    10.222673   -2.7877595   -2.7467966    336.23297    1159.2729 
  149000    9.9181705   -2.7954069   -2.7556641    226.22509    1161.2714 
  150000    8.3068827   -2.7959702    -2.762684    107.67414    1165.3464 
  151000      9.42814   -2.7965162    -2.758737   -25.859587    1170.3404 
  152000    9.4042083   -2.7797822   -2.7420989   -34.593126    1175.2934 
  153000    10.434649   -2.7822997   -2.7404874   -157.77272    1179.5744 
  154000    10.169582     -2.78737   -2.7466198   -262.67661    1182.3171 
  155000    8.8433081    -2.790193   -2.7547573   -301.17692    1182.7153 
  156000    8.7745843    -2.793484   -2.7583237   -264.74446    1180.4291 
  157000    11.679718    -2.795401   -2.7485996   -151.05585    1175.8945 
  158000    11.053861   -2.7818991   -2.7376056    81.884063    1170.4534 
  159000    10.715237   -2.7843365   -2.7413998    189.54016    1165.6948 
  160000    10.594393    -2.795741   -2.7532886    191.47933    1162.5487 
  161000    11.061705   -2.8009408   -2.7566158    189.54101    1161.3435 
  162000     10.21659    -2.795464   -2.7545255      204.562    1162.1952 
  163000    10.202868   -2.7910337   -2.7501501    160.49799    1164.9646 
  164000    9.9175121   -2.7852474   -2.7455073    88.561568    1169.1565 
  165000    13.441989    -2.781707    -2.727844   0.15332366     1174.025 
  166000    12.144862   -2.7744035   -2.7257382   -77.713663    1178.9898 
  167000    10.863912   -2.7852702   -2.7417378   -260.07744    1183.0496 
  168000    11.323764   -2.7936559   -2.7482808   -369.01403    1184.8323 
  169000    9.5330856   -2.7886493   -2.7504496   -308.83715    1183.6974 
  170000    9.3037875   -2.7849552   -2.7476743   -184.08722    1179.8574 
  171000     13.84402   -2.7908766   -2.7354027   -73.471569    1174.3106 
  172000    11.848909   -2.7796334   -2.7321541    151.57555    1168.6778 
  173000    10.001899   -2.7891664   -2.7490882    189.40397    1164.2958 
  174000     7.752966   -2.7849359   -2.7538693     286.4489    1161.6688 
  175000    10.064409     -2.79371   -2.7533813    240.42582    1161.1576 
  176000    10.064269   -2.7898884   -2.7495603    226.36726    1162.8627 
  177000    11.689917   -2.7872926   -2.7404503    149.90516    1166.5237 
  178000    11.394057   -2.7799028   -2.7342461     77.86443    1171.5771 
  179000    10.186446   -2.7864577     -2.74564   -121.77674    1177.0681 
  180000    9.4364318   -2.7936555   -2.7558431   -287.47958    1181.4173 
  181000    10.140079   -2.7942144   -2.7535824   -335.40636    1183.3217 
  182000    9.9656993   -2.7843742    -2.744441   -244.51719    1182.4511 
  183000    11.133162   -2.7828275   -2.7382162   -150.45213    1179.3361 
  184000    10.869348   -2.7850106   -2.7414564   -52.046493    1174.9167 
  185000    12.667942   -2.7961628   -2.7454016   -2.8452804    1170.1089 
  186000    10.377546   -2.7906621   -2.7490786    143.61821    1165.8454 
  187000    10.459676   -2.7956773   -2.7537647    181.20517    1162.9385 
  188000    8.4332743   -2.7932702   -2.7594775    220.56874    1161.8429 
  189000     7.689347   -2.7961787    -2.765367    176.22693     1162.581 
  190000    6.5998909   -2.7890764   -2.7626302     166.8997    1164.7843 
  191000    9.0450111   -2.7853149   -2.7490709    119.19475    1168.0548 
  192000    9.8761815   -2.7836432   -2.7440688     29.04599    1172.0555 
  193000     10.98585   -2.7893184   -2.7452974   -112.01582    1176.0694 
  194000    9.7928388   -2.7923165    -2.753076   -222.02141    1179.1511 
  195000    5.4688163   -2.7848944   -2.7629805   -212.91917    1180.3396 
  196000    8.6217304   -2.7946245   -2.7600766    -240.8281    1179.0963 
  197000    12.419052   -2.7943714   -2.7446075    -141.2151     1175.856 
  198000    10.844976   -2.7871005    -2.743644    16.913955     1171.816 
  199000    10.978528    -2.792726   -2.7487343    69.029548    1167.9783 
  200000    8.2258848   -2.7895406    -2.756579    162.87812    1165.0139 
  201000    8.1067114   -2.7934424   -2.7609583    175.63129    1163.3118 
  202000    6.9105572   -2.7840535   -2.7563624    250.35166    1163.0899 
  203000    11.768398    -2.788641   -2.7414842    190.74409    1164.5672 
  204000    12.927485    -2.792273   -2.7404717    87.922098    1167.8138 
  205000    12.588496    -2.800002   -2.7495591   -84.550963    1172.1298 
  206000    8.4745661   -2.7916818   -2.7577237   -143.56481    1176.2325 
  207000    7.8909681   -2.7879259   -2.7563063   -187.60705     1178.955 
  208000    9.5302743   -2.7903479   -2.7521595   -223.44171    1179.7374 
  209000    9.8632539   -2.7885466   -2.7490239   -174.98648    1178.5801 
  210000    10.157553   -2.7857986   -2.7450966   -85.684993     1175.895 
  211000    10.368894   -2.7834061   -2.7418572    22.627639    1172.4435 
  212000    8.8893347   -2.7805989   -2.7449788    123.07008     1169.115 
  213000    8.5247111   -2.7910435   -2.7568844    111.07132    1166.5171 
  214000    6.1194184   -2.7854285   -2.7609076    190.48687    1164.8493 
  215000    9.1439148   -2.7909853    -2.754345    172.74649    1164.3287 
  216000    11.135713   -2.7851738   -2.7405523    201.76915     1165.288 
  217000    13.254194   -2.7945942   -2.7414837    67.980553    1167.8973 
  218000    8.5159093   -2.7821028    -2.747979    49.231217    1171.5481 
  219000    9.0013908   -2.7894522   -2.7533831   -101.42756    1175.2036 
  220000     8.346666   -2.7881465   -2.7547009   -160.65016    1177.8551 
  221000    9.6788879   -2.7839824   -2.7451985   -153.35513    1178.8966 
  222000    13.586765    -2.788616    -2.734173   -158.93082    1178.4429 
  223000    11.420914   -2.7849881   -2.7392238   -97.626278    1176.9691 
  224000    11.511388   -2.7980656   -2.7519388    -139.7153    1174.6582 
  225000    7.6153121   -2.7856261    -2.755111    15.256082    1171.6373 
  226000    9.1947836   -2.7893578   -2.7525137    74.804998    1168.4706 
  227000    10.726194   -2.7901227   -2.7471421    143.58689    1165.9527 
  228000    13.630129    -2.789259   -2.7346422    189.40516    1164.8314 
  229000    10.456364   -2.7651411   -2.7232418    331.55444    1165.7836 
  230000    11.242447   -2.7851973    -2.740148    102.86157    1168.8597 
  231000    9.5390234   -2.7866066   -2.7483832   -15.122159    1172.8707 
  232000    9.7215303   -2.7912574   -2.7523026   -144.68112    1176.5737 
  233000    7.7341932   -2.7840363   -2.7530449   -164.43123    1178.9974 
  234000    9.7735905   -2.7848639   -2.7457005   -177.42006    1179.6198 
  235000    13.317732   -2.7869074   -2.7335424   -153.53295    1178.5959 
  236000     11.40848    -2.782471   -2.7367564   -75.205172    1176.5535 
  237000    9.6249727   -2.7895192   -2.7509514   -61.876434    1173.8521 
  238000    10.305832   -2.7945604   -2.7532642   -14.329052    1170.6861 
  239000    10.791823   -2.7943734   -2.7511299    65.998483    1167.6437 
  240000    10.196922   -2.7872977    -2.746438    169.34221    1165.4651 
  241000    10.619864   -2.7824988   -2.7399443    226.11756     1164.793 
  242000    10.123516   -2.7790872   -2.7385216     221.7172    1165.9654 
  243000    9.7357778    -2.790588   -2.7515761    66.844115    1168.7114 
  244000    9.6213898   -2.7971264   -2.7585729   -70.512432    1172.0064 
  245000    10.256882   -2.7966459    -2.755546   -139.24095    1174.8508 
  246000    12.199827   -2.7926604   -2.7437749   -152.64778    1176.7254 
  247000    10.348119   -2.7799078   -2.7384422   -86.464697    1177.5946 
  248000    10.381307   -2.7837281   -2.7421295   -110.40808    1177.4825 
  249000    11.027371    -2.792411   -2.7482236   -144.26638    1176.3133 
  250000    9.2586353   -2.7910173   -2.7539173    -80.39379    1174.1466 
  250001    9.2477032   -2.7909779   -2.7539218   -80.069137     1174.144 
Loop time of 102.832 on 1 procs for 250000 steps with 32 atoms

Performance: 210.051 ns/day, 0.114 hours/ns, 2431.150 timesteps/s
92.2% CPU use with 1 MPI tasks x 1 OpenMP threads

MPI task timing breakdown:
Section |  min time  |  avg time  |  max time  |%varavg| %total
---------------------------------------------------------------
Pair    | 94.647     | 94.647     | 94.647     |   0.0 | 92.04
Neigh   | 0          | 0          | 0          |   0.0 |  0.00
Comm    | 6.2089     | 6.2089     | 6.2089     |   0.0 |  6.04
Output  | 0.010531   | 0.010531   | 0.010531   |   0.0 |  0.01
Modify  | 1.2481     | 1.2481     | 1.2481     |   0.0 |  1.21
Other   |            | 0.7178     |            |       |  0.70

Nlocal:        32.0000 ave          32 max          32 min
Histogram: 1 0 0 0 0 0 0 0 0 0
Nghost:        4599.00 ave        4599 max        4599 min
Histogram: 1 0 0 0 0 0 0 0 0 0
Neighs:        20032.0 ave       20032 max       20032 min
Histogram: 1 0 0 0 0 0 0 0 0 0

Total # of neighbors = 20032
Ave neighs/atom = 626.00000
Neighbor list builds = 0
Dangerous builds = 0

unfix 1
unfix 2

next i
jump SELF loop

variable Tanneal equal ${Tmin}+(${i}-1)*${Tstep}
variable Tanneal equal 10+(${i}-1)*${Tstep}
variable Tanneal equal 10+(2-1)*${Tstep}
variable Tanneal equal 10+(2-1)*10
variable STEP equal step
variable T equal temp
variable PE equal pe
variable Eperatom equal pe/atoms
variable LAT equal (vol)^(1/3)/2

if "${i} == 1" then   "velocity all create ${Tanneal} 5534 dist gaussian"
fix 1 all npt temp ${Tanneal} ${Tanneal} 1 iso 0 0 100.0
fix 1 all npt temp 20 ${Tanneal} 1 iso 0 0 100.0
fix 1 all npt temp 20 20 1 iso 0 0 100.0
fix 2 all print 1000 "${STEP} ${T} ${PE} ${Eperatom} ${LAT}" file 2_${Tanneal}.dat screen no
fix 2 all print 1000 "${STEP} ${T} ${PE} ${Eperatom} ${LAT}" file 2_20.dat screen no

run 250000
Per MPI rank memory allocation (min/avg/max) = 3.155 | 3.155 | 3.155 Mbytes
Step Temp PotEng TotEng Press Volume 
  250001    9.2477032   -2.7909779   -2.7539218   -80.069137     1174.144 
  251000    11.096118   -2.7821675   -2.7377047   -6.5543178    1173.9795 
  252000    12.264684    -2.765388   -2.7162427    124.67909     1173.744 
  253000     14.98508   -2.7477149   -2.6876687    258.30378    1173.8681 
  254000    21.974508    -2.749796   -2.6617427    239.08729    1174.8531 
  255000    21.635843   -2.7360713   -2.6493751    286.72305    1177.0275 
  256000    24.227733   -2.7553955   -2.6583134    68.999784    1180.3561 
  257000     21.69236   -2.7650759   -2.6781532   -108.37992    1184.3398 
  258000    18.104392   -2.7583628   -2.6858174   -176.43425    1188.2244 
  259000    20.856977   -2.7541815   -2.6706062   -213.29659    1191.4652 
  260000    24.021851   -2.7381315   -2.6418744   -144.70674    1193.9901 
  261000    22.588409   -2.7362365   -2.6457233   -194.90102    1195.9601 
  262000    20.227527   -2.7430553   -2.6620023   -271.95752    1197.1033 
  263000    18.618756   -2.7482247   -2.6736182   -315.48441    1197.0349 
  264000    16.931998   -2.7408708   -2.6730232   -224.46324    1195.5663 
  265000    24.916608   -2.7368488   -2.6370064   -108.36717    1192.9104 
  266000     23.63783    -2.726129   -2.6314107    33.585619    1189.8538 
  267000    22.988734   -2.7508225   -2.6587052   -71.087915    1186.8429 
  268000    17.368229   -2.7433343   -2.6737387    43.930299    1183.8005 
  269000     19.72428   -2.7552062   -2.6761697    39.646504    1180.7814 
  270000     21.22593   -2.7531529   -2.6680993    130.09175    1178.0723 
  271000    25.217757    -2.738253   -2.6372039    305.62674    1176.1372 
  272000    24.853637   -2.7339671   -2.6343769    348.22754    1175.6377 
  273000    21.554172   -2.7496691   -2.6633001    196.43081    1176.6874 
  274000    22.032987   -2.7603142   -2.6720266    67.801138    1178.7411 
  275000    20.844355   -2.7568442   -2.6733196    18.857165    1181.3958 
  276000    22.994481   -2.7599603   -2.6678199   -66.082301    1184.3454 
  277000    24.555786   -2.7478758   -2.6494792    -52.07853     1187.365 
  278000    26.232434    -2.737932   -2.6328169   -50.258603    1190.4446 
  279000    18.392283   -2.7280679   -2.6543688   -84.144982    1193.4923 
  280000    20.988363   -2.7608605   -2.6767588   -364.59398    1195.8717 
  281000    20.767557   -2.7570241   -2.6738071   -364.60271    1196.9261 
  282000    18.672251   -2.7342858   -2.6594648   -202.72916    1196.5697 
  283000    22.616978   -2.7335916   -2.6429639    -155.4797    1195.0966 
  284000    21.830608    -2.728168   -2.6406913   -70.081659    1192.9311 
  285000    17.347711   -2.7419824   -2.6724691   -101.00335    1190.3075 
  286000    19.056628   -2.7620019   -2.6856408   -162.96203    1187.0581 
  287000    19.479193   -2.7576218   -2.6795674   -42.705127    1183.2696 
  288000    17.807028   -2.7285937   -2.6572398    253.97284    1179.4627 
  289000    22.503183   -2.7377803   -2.6476086    286.09729    1176.4089 
  290000    23.344154   -2.7547368   -2.6611953    217.38726      1174.59 
  291000    20.455431   -2.7616615   -2.6796953    168.87055    1173.9904 
  292000    19.666313    -2.758886   -2.6800818    175.45269    1174.4032 
  293000    17.978382   -2.7445762   -2.6725356    238.10021    1175.7575 
  294000    19.159757    -2.736783   -2.6600086    247.03808    1178.0456 
  295000    24.022654   -2.7471976   -2.6509373    103.64378    1181.2516 
  296000     21.49589   -2.7447474    -2.658612    12.110801    1185.1636 
  297000    17.309897   -2.7534192   -2.6840573   -160.76505    1189.1978 
  298000    17.019202   -2.7557437   -2.6875466   -264.59553    1192.5239 
  299000    19.895108   -2.7480757   -2.6683547   -251.17587    1194.7042 
  300000    20.528528    -2.734456   -2.6521969   -182.06209     1195.817 
  301000    17.709028   -2.7250359   -2.6540746   -123.57885    1196.0195 
  302000    23.534436   -2.7567521   -2.6624481   -316.34908    1195.2807 
  303000    17.937977   -2.7479208   -2.6760421   -228.28054    1193.4977 
  304000    13.374602   -2.7473463   -2.6937534    -171.5023    1190.6107 
  305000    17.737255   -2.7710605   -2.6999862    -228.5376    1186.6415 
  306000    19.875098   -2.7534026   -2.6737618    28.265227    1181.9357 
  307000    22.297306   -2.7461666   -2.6568199    208.87349    1177.4165 
  308000    24.493896   -2.7568552   -2.6587066    229.18652    1173.8856 
  309000    20.658201   -2.7586876   -2.6759088      260.373    1171.6906 
  310000    14.927844   -2.7528714   -2.6930546    299.99492    1170.7929 
  311000    15.802776   -2.7529764   -2.6896537    294.78536    1171.0328 
  312000    24.854949   -2.7500374   -2.6504421    311.84295    1172.4844 
  313000    18.337105   -2.7239195   -2.6504415     396.7638     1175.531 
  314000    19.080516   -2.7466677   -2.6702108    124.85727    1179.8998 
  315000    13.616873   -2.7381998   -2.6836361    46.792931    1184.8065 
  316000    17.929848   -2.7513142   -2.6794681   -155.26877    1189.4987 
  317000    23.941773   -2.7405008   -2.6445646   -155.23418     1193.556 
  318000    20.349723   -2.7199001   -2.6383574   -97.865497    1197.0505 
  319000    18.237844   -2.7269226   -2.6538424   -228.19367    1199.7681 
  320000    20.335005   -2.7501136   -2.6686299   -422.53724    1201.1578 
  321000    19.559749    -2.750164   -2.6717868   -415.31798    1200.7927 
  322000    19.105571   -2.7277628   -2.6512056   -205.48014    1198.6606 
  323000    29.431033   -2.7412496   -2.6233176    -183.4957    1195.3757 
  324000    20.365672   -2.7246551   -2.6430486   -7.4574479    1191.6949 
  325000    18.778776   -2.7401887    -2.664941   -30.152762    1187.7376 
  326000    21.779794   -2.7600618   -2.6727888   -55.660036    1183.5411 
  327000    23.201417   -2.7663861   -2.6734165    9.9366512    1179.3976 
  328000    22.721228   -2.7537692   -2.6627237    192.81119    1175.7537 
  329000    22.980157   -2.7290785   -2.6369955    443.01408    1173.2363 
  330000    22.579454   -2.7360526   -2.6455753    410.95818    1172.5014 
  331000     17.96534   -2.7466938   -2.6747055    285.17146       1173.5 
  332000    20.257688   -2.7607824   -2.6796085    133.45498    1175.6792 
  333000    20.322807   -2.7555687   -2.6741339    98.295581    1178.6872 
  334000    21.973837   -2.7444877   -2.6564371    89.016044    1182.2991 
  335000     21.00872   -2.7148039   -2.6306206     190.7368    1186.4374 
  336000     24.00925   -2.7370684   -2.6408618   -70.297343    1191.0701 
  337000    19.817206    -2.754891   -2.6754822   -314.28775    1195.5092 
  338000    16.123787   -2.7407548   -2.6761458   -313.05066    1198.7224 
  339000    19.740449   -2.7392312   -2.6601299   -326.06944    1200.3196 
  340000    23.425208   -2.7356293    -2.641763   -280.99878    1200.3971 
  341000    22.998664   -2.7345692   -2.6424121   -251.11328    1199.2419 
  342000    16.718573   -2.7408469   -2.6738545   -265.05212    1196.9516 
  343000    16.766687   -2.7537623   -2.6865771   -264.79523     1193.287 
  344000    18.118787   -2.7491909   -2.6765877   -104.38653     1188.389 
  345000    22.010404   -2.7472309   -2.6590338     50.58314     1182.961 
  346000    23.756655   -2.7473211   -2.6521266    195.23353    1177.8745 
  347000     21.78356   -2.7539638   -2.6666756     236.1586     1173.799 
  348000    16.337569   -2.7626945   -2.6972288     224.7313    1170.9042 
  349000    14.180597   -2.7489117   -2.6920892    369.19687    1169.0719 
  350000    21.388793   -2.7590223    -2.673316    337.70133    1168.5639 
  351000    24.318178   -2.7576641   -2.6602196    333.09798    1169.7451 
  352000    24.651319   -2.7592669   -2.6604875    232.97897    1172.7237 
  353000    16.488792   -2.7430042   -2.6769326    214.34749    1177.1713 
  354000    14.034674   -2.7604345   -2.7041966   -51.790595    1182.3102 
  355000    18.312084    -2.769431   -2.6960533   -225.25445    1187.1767 
  356000    15.926712   -2.7409292   -2.6771098   -126.70903    1191.3283 
  357000     18.90921   -2.7392529   -2.6634825   -187.52957    1194.6446 
  358000    22.019712   -2.7418166   -2.6535822   -250.13661    1197.0144 
  359000    22.688319   -2.7400091   -2.6490955   -266.49596    1198.3488 
  360000    18.586833   -2.7333296   -2.6588509   -240.78621    1198.5758 
  361000    17.460148   -2.7500179    -2.680054   -331.22761    1197.5012 
  362000    17.425873   -2.7535524   -2.6837258   -288.62564     1194.894 
  363000    23.663257    -2.758432   -2.6636118   -220.49056    1190.9667 
  364000    18.836708   -2.7210972   -2.6456173    155.89038    1186.4718 
  365000    23.279909   -2.7453808   -2.6520967    101.10015    1182.2208 
  366000    20.849447   -2.7494239   -2.6658788    150.73627     1178.541 
  367000    23.918494    -2.770143   -2.6743001    80.608331    1175.5937 
  368000       19.805   -2.7546927   -2.6753328    227.68462    1173.5356 
  369000    19.943498   -2.7526043   -2.6726894    275.40245    1172.5668 
  370000    17.226397   -2.7400585   -2.6710312    344.23013    1172.8623 
  371000    18.704945   -2.7450256   -2.6700737    269.74566     1174.423 
  372000    21.421384   -2.7535811   -2.6677443    156.78607     1177.113 
  373000     25.61864   -2.7649181   -2.6622626   -3.8316945    1180.6819 
  374000    21.267707   -2.7370387   -2.6518176    81.809045    1184.8559 
  375000    21.756183   -2.7380903   -2.6509118    -38.56417    1189.3639 
  376000    23.553997   -2.7632492   -2.6688668    -329.7743    1193.7117 
  377000    16.788377   -2.7502404   -2.6829683   -339.83322    1197.1233 
  378000    17.000173   -2.7437586   -2.6756378   -330.31864    1198.9916 
  379000    19.846239   -2.7209593   -2.6414342    -157.2721    1199.2695 
  380000    24.173652   -2.7392404   -2.6423751   -264.28035    1198.4104 
  381000    19.802161   -2.7392032   -2.6598546   -233.76115    1196.5248 
  382000    19.338562   -2.7516613   -2.6741704   -248.90357    1193.5054 
  383000    20.460406   -2.7587506   -2.6767644   -197.02898    1189.4141 
  384000    24.037563   -2.7474983   -2.6511782    18.168453    1184.6688 
  385000    23.168102    -2.723927   -2.6310909    295.25299     1180.199 
  386000     24.21282    -2.750052   -2.6530297    191.83443     1176.809 
  387000    18.058123   -2.7441787   -2.6718186    280.19161    1174.5431 
  388000    19.234334   -2.7538108   -2.6767376    236.24013    1173.3363 
  389000    22.047018   -2.7622743   -2.6739305    190.03181     1173.236 
  390000    20.500356   -2.7369086   -2.6547623    336.14679    1174.3093 
  391000    22.309643   -2.7209855   -2.6315893    404.80612    1176.8182 
  392000    22.252759   -2.7407961   -2.6516278    155.94897    1180.8333 
  393000    20.785348   -2.7539822    -2.670694   -69.687911    1185.6574 
  394000    17.942324   -2.7436264   -2.6717303   -114.96308    1190.4303 
  395000    19.592122   -2.7431145   -2.6646076   -216.47519    1194.6049 
  396000    23.553306   -2.7393643   -2.6449847   -254.87394    1197.8557 
  397000    21.860622    -2.710071   -2.6224741    -106.3603    1200.1752 
  398000    23.444144   -2.7326632    -2.638721   -293.95185    1201.6547 
  399000    17.013879   -2.7384764   -2.6703007   -354.52849    1201.8467 
  400000    18.001647   -2.7441999   -2.6720661   -364.86345    1200.2021 
  401000    20.470502    -2.742429   -2.6604024   -253.17379    1196.8192 
  402000    24.123439   -2.7382521   -2.6415879   -108.01481    1192.2655 
  403000    25.457567   -2.7441665   -2.6421564    -18.53299    1187.2991 
  404000    17.840145   -2.7512322   -2.6797456    28.324212    1182.4092 
  405000    17.179618   -2.7544979   -2.6856581    119.88893    1177.5964 
  406000    19.065673   -2.7506459   -2.6742485    263.21583    1173.2429 
  407000    22.592355   -2.7457362   -2.6552072    405.00247    1170.0193 
  408000    24.448734   -2.7468145   -2.6488468    442.11516    1168.6161 
  409000    21.598012   -2.7670631   -2.6805184    265.67731    1169.2787 
  410000    17.439237   -2.7643653   -2.6944852    203.40024    1171.4929 
  411000    18.628817   -2.7578517   -2.6832048    174.00432    1174.7731 
  412000    21.228295   -2.7477675   -2.6627044    151.13142    1178.9643 
  413000    20.895443   -2.7409391   -2.6572097    66.906617    1183.9441 
  414000    20.683083   -2.7448305    -2.661952   -94.194838    1189.2824 
  415000     15.73057   -2.7321126   -2.6690791    -144.9016    1194.3303 
  416000    14.242464   -2.7486601   -2.6915896   -364.01721    1198.3885 
  417000    16.605169   -2.7657045   -2.6991665   -529.30337    1200.6522 
  418000    16.521738   -2.7440866   -2.6778829   -378.41895    1200.6954 
  419000    22.393552   -2.7507789   -2.6610465   -359.29325     1198.814 
  420000     18.77898   -2.7282606    -2.653012   -128.86419    1195.5043 
  421000    22.098035   -2.7419282   -2.6533799   -113.45706    1191.2758 
  422000    19.440649   -2.7524927   -2.6745928   -83.843872     1186.538 
  423000     19.27011   -2.7694329   -2.6922164   -71.293547    1181.4505 
  424000    15.817652   -2.7498848   -2.6865025    183.81037    1176.2585 
  425000    20.386778   -2.7492717   -2.6675805    322.12691    1171.6399 
  426000    23.294201   -2.7559137   -2.6625724    373.04628    1168.4066 
  427000    20.112374   -2.7477323   -2.6671408    457.87737    1167.0386 
  428000     19.84489   -2.7565106   -2.6769908    382.07171    1167.6416 
  429000    17.576342   -2.7604219   -2.6899924    278.12067    1170.0082 
  430000    18.327608   -2.7746592   -2.7012193    77.089018    1173.6775 
  431000    16.531112   -2.7585315   -2.6922903    74.594783    1178.0821 
  432000    20.988844   -2.7489591   -2.6648554    40.856257    1182.9249 
  433000    22.638098   -2.7464622   -2.6557498   -53.087742    1188.1163 
  434000    21.435639    -2.743765    -2.657871   -179.64265    1193.2872 
  435000    14.325193    -2.730581    -2.673179   -209.87974    1197.8104 
  436000    17.465523   -2.7602373   -2.6902519   -491.66353    1200.9253 
  437000    18.121693   -2.7552838    -2.682669   -482.50863    1201.9723 
  438000    19.153651   -2.7278998   -2.6511498   -251.72849    1200.9665 
  439000    22.606568    -2.738987    -2.648401   -270.00732    1198.4772 
  440000    21.731115    -2.746324    -2.659246   -242.51001    1194.7989 
  441000    18.712837    -2.752564   -2.6775805   -176.17235    1190.0997 
  442000    17.244332   -2.7574274   -2.6883283   -77.837697    1184.5669 
  443000    21.732807   -2.7662378    -2.679153    24.233129    1178.6406 
  444000    26.125708   -2.7525085   -2.6478211    282.60352    1173.1628 
  445000    25.848824   -2.7512103   -2.6476324    398.53832    1169.2003 
  446000    19.540622   -2.7498975    -2.671597    433.76493    1167.2247 
  447000    16.683856   -2.7502627   -2.6834094    425.49938     1167.124 
  448000    18.170406   -2.7537799     -2.68097    357.35252    1168.7387 
  449000    20.184812    -2.752871   -2.6719892    290.47955    1171.9713 
  450000    21.134011   -2.7461226   -2.6614373     218.6791    1176.6512 
  451000    23.258168   -2.7205982   -2.6274012    270.62907    1182.5122 
  452000    29.421679   -2.7356094   -2.6177148    12.378637    1189.4888 
  453000    23.891289   -2.7447407   -2.6490068   -268.20719    1197.0012 
  454000    17.381936   -2.7322993   -2.6626488   -357.59754    1203.7669 
  455000    19.867828   -2.7447709   -2.6651592   -559.36151     1208.754 
  456000     18.66611   -2.7306411   -2.6558448   -521.87425    1211.3244 
  457000    22.470001   -2.7164003   -2.6263616   -409.06428    1211.3561 
  458000     24.78287   -2.7242343   -2.6249278   -411.75386    1209.2445 
  459000    24.576936   -2.7461425   -2.6476611   -468.33953    1205.2372 
  460000    20.067796   -2.7380956   -2.6576827   -291.70169    1199.3632 
  461000    16.496366   -2.7299416   -2.6638396   -60.166644    1192.0091 
  462000     19.11628   -2.7472177   -2.6706176    22.614823    1183.8601 
  463000    19.735074   -2.7614271   -2.6823474    127.12566    1175.6657 
  464000    16.617018   -2.7630824   -2.6964969    306.01229    1168.1204 
  465000    14.463205   -2.7533905   -2.6954355     535.7915    1161.8553 
  466000    19.810086   -2.7444403     -2.66506     738.1069    1157.6514 
  467000    19.388454   -2.7323153   -2.6546245    859.78052     1156.453 
  468000    18.220897   -2.7384527   -2.6654403     747.5263      1158.66 
  469000     20.47489    -2.766704   -2.6846598    402.87555    1163.9131 
  470000    19.435177   -2.7735632   -2.6956852    156.14448    1171.3845 
  471000    18.483721   -2.7625451   -2.6884797    4.2049096    1180.0861 
  472000    18.380891   -2.7332939   -2.6596405   -9.4190693     1189.229 
  473000    20.055288   -2.7259666   -2.6456037   -177.17183    1198.2545 
  474000    21.343649   -2.7319838   -2.6464584   -405.68772    1206.4405 
  475000    20.763381   -2.7449922    -2.661792   -654.64639    1212.8596 
  476000    18.452163    -2.748037    -2.674098   -772.41753    1216.5231 
  477000    19.004351   -2.7408796   -2.6647279    -721.8578    1216.7706 
  478000    17.053459   -2.7013652   -2.6330309   -376.02797    1213.7293 
  479000    24.090336   -2.7310414   -2.6345098    -433.6864    1208.1895 
  480000    22.273062   -2.7453058   -2.6560562   -368.62446    1200.6761 
  481000    15.566913   -2.7363372   -2.6739596   -102.88254     1191.612 
  482000    18.750624    -2.751287    -2.676152    42.127296    1181.6701 
  483000    22.220382   -2.7590028   -2.6699643     258.4221    1171.8846 
  484000    24.189349   -2.7610463    -2.664118    477.49352    1163.4384 
  485000    20.138002   -2.7496922    -2.668998    707.99491    1157.3891 
  486000    18.764355   -2.7608825   -2.6856925    699.00019    1154.3354 
  487000    17.856269   -2.7629037   -2.6913525    678.99652    1154.3816 
  488000    19.789394   -2.7591698   -2.6798725    626.08742    1157.4787 
  489000    22.318509   -2.7499385   -2.6605068    542.54101    1163.5279 
  490000     21.00759   -2.7413056   -2.6571269    365.21658    1172.1982 
  491000    18.482682    -2.744006   -2.6699447    76.790616    1182.6308 
  492000    14.787226   -2.7562702   -2.6970168   -294.09955      1193.46 
  493000    20.226187   -2.7740708   -2.6930232   -638.65202    1203.0664 
  494000    15.197559   -2.7348943   -2.6739967   -548.70159    1210.4101 
  495000    17.192339   -2.7263883   -2.6574975   -578.41809    1214.9995 
  496000    18.130687   -2.7159087   -2.6432579    -537.5776    1216.6091 
  497000    22.119682   -2.7233839   -2.6347489   -555.93204    1215.3116 
  498000    25.573876    -2.746864   -2.6443878   -619.98698    1211.3418 
  499000    17.250199   -2.7457259   -2.6766032   -486.91286    1204.9119 
  500000    15.864511    -2.745276   -2.6817059   -280.52078    1196.2014 
  500001    15.804989    -2.745034   -2.6817024   -278.70465    1196.1917 
Loop time of 93.2841 on 1 procs for 250000 steps with 32 atoms

Performance: 231.551 ns/day, 0.104 hours/ns, 2679.986 timesteps/s
98.6% CPU use with 1 MPI tasks x 1 OpenMP threads

MPI task timing breakdown:
Section |  min time  |  avg time  |  max time  |%varavg| %total
---------------------------------------------------------------
Pair    | 86.051     | 86.051     | 86.051     |   0.0 | 92.25
Neigh   | 0          | 0          | 0          |   0.0 |  0.00
Comm    | 5.5764     | 5.5764     | 5.5764     |   0.0 |  5.98
Output  | 0.003841   | 0.003841   | 0.003841   |   0.0 |  0.00
Modify  | 0.99554    | 0.99554    | 0.99554    |   0.0 |  1.07
Other   |            | 0.6571     |            |       |  0.70

Nlocal:        32.0000 ave          32 max          32 min
Histogram: 1 0 0 0 0 0 0 0 0 0
Nghost:        4599.00 ave        4599 max        4599 min
Histogram: 1 0 0 0 0 0 0 0 0 0
Neighs:        19426.0 ave       19426 max       19426 min
Histogram: 1 0 0 0 0 0 0 0 0 0

Total # of neighbors = 19426
Ave neighs/atom = 607.06250
Neighbor list builds = 0
Dangerous builds = 0

unfix 1
unfix 2

next i
jump SELF loop

variable Tanneal equal ${Tmin}+(${i}-1)*${Tstep}
variable Tanneal equal 10+(${i}-1)*${Tstep}
variable Tanneal equal 10+(3-1)*${Tstep}
variable Tanneal equal 10+(3-1)*10
variable STEP equal step
variable T equal temp
variable PE equal pe
variable Eperatom equal pe/atoms
variable LAT equal (vol)^(1/3)/2

if "${i} == 1" then   "velocity all create ${Tanneal} 5534 dist gaussian"
fix 1 all npt temp ${Tanneal} ${Tanneal} 1 iso 0 0 100.0
fix 1 all npt temp 30 ${Tanneal} 1 iso 0 0 100.0
fix 1 all npt temp 30 30 1 iso 0 0 100.0
fix 2 all print 1000 "${STEP} ${T} ${PE} ${Eperatom} ${LAT}" file 2_${Tanneal}.dat screen no
fix 2 all print 1000 "${STEP} ${T} ${PE} ${Eperatom} ${LAT}" file 2_30.dat screen no

run 250000
Per MPI rank memory allocation (min/avg/max) = 3.155 | 3.155 | 3.155 Mbytes
Step Temp PotEng TotEng Press Volume 
  500001    15.804989    -2.745034   -2.6817024   -278.70465    1196.1917 
  501000    15.183704   -2.7163966   -2.6555545    -66.09021    1195.7332 
  502000    26.425844   -2.7311056   -2.6252155   -99.721783    1194.6369 
  503000    33.784239   -2.7244871   -2.5891115    10.722507    1193.3675 
  504000    28.575657   -2.6782385    -2.563734    331.83783    1192.4337 
  505000    32.309807   -2.6920132   -2.5625457    244.21634    1192.1821 
  506000    29.444034   -2.7105528   -2.5925686    99.790775    1192.6289 
  507000    28.679604   -2.7302117   -2.6152907   -53.770915    1193.4514 
  508000    25.267844   -2.7102106   -2.6089607    55.645439    1194.3239 
  509000    37.425147   -2.7094855   -2.5595205    79.745768    1195.2977 
  510000    35.555847     -2.69237   -2.5498954    149.69296    1196.7895 
  511000    26.350569   -2.6792653   -2.5736768    166.82199    1198.8576 
  512000    30.788571   -2.7213286   -2.5979568   -173.91003    1201.0883 
  513000    28.986266   -2.7211505   -2.6050006   -226.23944    1203.0229 
  514000     31.11691   -2.7037103   -2.5790228    -126.7184     1204.458 
  515000    36.370891   -2.6833424   -2.5376019    7.8011683    1205.6233 
  516000    30.779838    -2.674451   -2.5511142    10.833014    1206.8456 
  517000    27.239616   -2.6886466   -2.5794957   -107.25152    1207.9119 
  518000    28.590417   -2.7029931   -2.5884294   -217.39485    1208.4569 
  519000    32.380805   -2.7137466   -2.5839946   -284.95993    1208.3263 
  520000    27.604322   -2.6871757   -2.5765634   -97.935056    1207.5457 
  521000    27.057022   -2.6803986   -2.5719793   -22.165496    1206.2683 
  522000    33.656156   -2.7077346   -2.5728722   -149.75421    1204.6472 
  523000    26.563672   -2.6825167   -2.5760743    44.627636    1202.7822 
  524000    31.552027    -2.708699   -2.5822679   -76.061598    1200.7786 
  525000    30.348249   -2.7164301   -2.5948227   -82.372499    1198.6761 
  526000    28.561386    -2.725581   -2.6111337   -93.435606    1196.4804 
  527000    22.061204    -2.704573   -2.6161724    89.827906    1194.1579 
  528000      29.7105   -2.7034013   -2.5843495    170.18705    1191.8564 
  529000     36.97517   -2.7048291   -2.5566672    240.42849    1190.0602 
  530000    33.558716    -2.700253   -2.5657811    278.51093    1189.2164 
  531000    27.312259   -2.7062415   -2.5967995    210.43247    1189.2801 
  532000    26.928392   -2.7204579   -2.6125541    85.509013     1189.906 
  533000    27.352018   -2.7162764   -2.6066751    97.555682    1190.8635 
  534000    29.602248   -2.7118425   -2.5932244    109.25986    1192.1352 
  535000    28.488497   -2.6864507   -2.5722955    254.08544     1193.804 
  536000    28.661491   -2.6738114   -2.5589629    279.88738    1195.9911 
  537000     36.93459    -2.719075   -2.5710757   -91.656206     1198.703 
  538000    19.513364   -2.6880897   -2.6098984    4.6274145    1201.5729 
  539000    27.213603   -2.7232198   -2.6141731   -272.28233    1204.0014 
  540000    28.803372      -2.6998   -2.5843831   -148.24472    1205.7634 
  541000    35.187569   -2.7025254   -2.5615265   -170.12959      1207.07 
  542000    30.135489   -2.6850734   -2.5643186   -80.905875     1208.099 
  543000    26.100815   -2.6818359   -2.5772483   -91.527263    1208.7557 
  544000    28.578978   -2.7135984   -2.5990806   -305.68827    1208.8372 
  545000    23.837921   -2.7259584   -2.6304383    -386.6232    1208.0727 
  546000    24.565148   -2.7309976   -2.6325634   -385.06288    1206.1652 
  547000    27.265649   -2.6946416   -2.5853864   -39.675603    1203.2559 
  548000        34.72   -2.7086605   -2.5695352    -47.31916    1200.0095 
  549000    27.362688    -2.678643   -2.5689989    202.41935    1196.8371 
  550000    28.291301    -2.700841   -2.5874759    131.43543    1193.9686 
  551000     28.98988     -2.73064   -2.6144757   -10.063206    1191.4055 
  552000    29.645935    -2.741862   -2.6230689   -32.325345    1189.0367 
  553000    29.122893   -2.7010925   -2.5843952    305.15664     1186.942 
  554000    26.239897   -2.6601325   -2.5549875    605.17819     1185.694 
  555000    27.978897   -2.6838823   -2.5717691    450.04947    1185.7105 
  556000    32.270885   -2.7313015     -2.60199    112.88615    1186.8053 
  557000    30.582792   -2.7332549   -2.6107077    45.653631    1188.5818 
  558000    27.666065   -2.7094246   -2.5985649    137.29975    1190.8177 
  559000    32.564098   -2.7076636   -2.5771771    110.23489    1193.4816 
  560000    32.439311   -2.7027745   -2.5727881    64.684099    1196.6209 
  561000    31.542386   -2.7042211   -2.5778287    -29.17367    1200.0957 
  562000    29.296636   -2.7062077   -2.5888142   -134.27319    1203.5872 
  563000    27.687006   -2.7057589   -2.5948153   -205.72496    1206.7379 
  564000     31.95268   -2.7112014    -2.583165   -291.27769    1209.2575 
  565000    31.739763   -2.6745094   -2.5473262    -69.70233     1211.109 
  566000    33.630675   -2.6697384   -2.5349781     -51.1674    1212.5834 
  567000    30.799461   -2.6948942   -2.5714787   -275.08376    1213.7133 
  568000    29.430335   -2.7159813    -2.598052   -440.89011    1214.0233 
  569000    28.079343   -2.7028831   -2.5903674    -326.7142    1213.1794 
  570000    34.583674   -2.7084444   -2.5698654   -311.42476    1211.3052 
  571000    28.825437   -2.6661015   -2.5505962    50.075857    1208.7674 
  572000    33.964587   -2.6917766   -2.5556783    -71.79566    1205.9685 
  573000    28.230345   -2.7171777   -2.6040569   -210.50492    1202.9828 
  574000     21.50156   -2.6991498   -2.6129916    8.9720126    1199.5372 
  575000     25.60603   -2.6944211   -2.5918161    141.76491    1195.7424 
  576000    33.270652   -2.6946713   -2.5613537    248.01819    1192.1136 
  577000    31.861963   -2.6902521   -2.5625792    344.46249    1189.2159 
  578000    31.378551   -2.7027468   -2.5770109      309.071    1187.2504 
  579000    27.347651   -2.6966379   -2.5870541    351.70993    1186.2161 
  580000    23.834932   -2.6903879   -2.5948798    396.25923     1186.073 
  581000     26.70107   -2.7079336   -2.6009407    247.64969    1186.7451 
  582000    25.948729   -2.7068329   -2.6028546    223.66106    1188.1075 
  583000     34.47174   -2.7257872   -2.5876567    74.195698    1190.0512 
  584000    34.909589    -2.703056   -2.5631711    190.29223    1192.6194 
  585000    30.765983   -2.6800497   -2.5567684    248.58248    1195.9199 
  586000    24.366571   -2.6875412   -2.5899028    69.270436    1199.8042 
  587000    26.338788   -2.7223921   -2.6168508   -247.42838    1203.6266 
  588000    28.051811   -2.7178689   -2.6054635   -295.78009    1206.8167 
  589000    30.253536   -2.7035667   -2.5823389   -248.83558    1209.2474 
  590000    34.712021   -2.7111883   -2.5720949   -323.00569    1210.9896 
  591000    26.613232   -2.6765618   -2.5699209   -142.60035    1212.0323 
  592000    32.550832   -2.7015572    -2.571124   -282.68366    1212.3655 
  593000    29.155655   -2.7015252   -2.5846966   -293.25967    1211.9328 
  594000    23.716585   -2.6991157   -2.6040818   -265.39546    1210.5858 
  595000     19.75064   -2.6796921     -2.60055   -92.767398    1208.2166 
  596000    34.129137   -2.7012819   -2.5645243   -124.87829    1205.0307 
  597000    29.427721   -2.6660042   -2.5480854    210.79577     1201.611 
  598000    29.474979   -2.6844423   -2.5663341    155.04096    1198.4075 
  599000    32.443838   -2.7173979   -2.5873933   -12.907695    1195.4626 
  600000     25.52043   -2.6923388   -2.5900768    213.59859    1192.7274 
  601000    32.370159   -2.7165013    -2.586792    125.95269    1190.3627 
  602000    31.576136   -2.7087829   -2.5822553     216.8967    1188.5502 
  603000    28.957329   -2.6929616   -2.5769277    348.60328    1187.4885 
  604000    31.260019   -2.7031141   -2.5778532    297.30654    1187.3362 
  605000    29.144624   -2.7101677   -2.5933833    212.33308     1188.086 
  606000     23.29409   -2.7062277   -2.6128868    179.93622    1189.5075 
  607000    25.367967   -2.7170992   -2.6154481    75.830019    1191.3051 
  608000    30.214554   -2.6988399   -2.5777683    168.59664    1193.3474 
  609000    31.129155   -2.6782809   -2.5535444    256.31932    1195.8901 
  610000    32.168241    -2.696817   -2.5679168    66.997083    1199.0463 
  611000    25.300383   -2.6951662   -2.5937859   -33.923465    1202.4754 
  612000     26.89272   -2.7114734   -2.6037125   -232.92451    1205.6449 
  613000    24.158146     -2.66997   -2.5731667   -10.353606    1208.1848 
  614000    34.213887   -2.6679948   -2.5308975    3.5254386    1210.2799 
  615000    40.200951   -2.7091266   -2.5480388   -320.95393    1212.2407 
  616000    28.771554   -2.6980381   -2.5827486   -316.59978    1213.7711 
  617000    28.006444   -2.7062354   -2.5940118   -397.36691    1214.3638 
  618000    27.336621    -2.691511   -2.5819714   -266.17492    1213.8121 
  619000    34.698527   -2.6713637   -2.5323245   -52.457114    1212.3211 
  620000     35.25046   -2.6695368    -2.528286   -4.7971234    1210.5047 
  621000    34.497689   -2.6935891   -2.5553546   -141.88822    1208.5546 
  622000    25.218582    -2.678683   -2.5776305   -14.942852    1206.2807 
  623000    33.919493   -2.7242731   -2.5883555   -252.60803    1203.6043 
  624000    23.932693   -2.6868115   -2.5909117    68.280299    1200.5368 
  625000     34.27774   -2.7128914   -2.5755383   -10.721314    1197.2798 
  626000    38.852631   -2.7042438   -2.5485588    135.18988    1194.2333 
  627000    25.318905   -2.6592568   -2.5578023    470.10855    1191.8858 
  628000    29.953269   -2.7182914   -2.5982667    105.59157    1190.2977 
  629000    28.853231    -2.723329   -2.6077122    85.711864    1189.1718 
  630000    23.777581   -2.6931003    -2.597822    291.69901    1188.4443 
  631000    29.423415   -2.6942716   -2.5763701     317.9602    1188.3084 
  632000    38.423691   -2.6976483   -2.5436821    321.91142    1189.0395 
  633000    44.821761   -2.6686531   -2.4890494    466.97883    1191.0686 
  634000    32.051287   -2.6655958   -2.5371642    370.98794    1194.7082 
  635000    35.122188   -2.7097879   -2.5690511   -28.716165    1199.3594 
  636000    26.579062   -2.6972267   -2.5907227   -96.041311    1204.2838 
  637000    28.787763     -2.71516   -2.5998056   -336.15659    1208.8856 
  638000    33.664383   -2.7177009   -2.5828056   -409.35348    1212.7302 
  639000    35.732323   -2.6822149   -2.5390332   -228.07495    1215.7481 
  640000    28.280346    -2.652873   -2.5395518   -99.731835    1218.1747 
  641000    26.031034   -2.6667795   -2.5624715   -226.77084    1219.8808 
  642000    28.354031   -2.6879653   -2.5743489   -411.68003     1220.473 
  643000    27.323459   -2.6834018    -2.573915    -355.7374    1219.7134 
  644000    33.958586   -2.7060104   -2.5699362   -437.04395     1217.632 
  645000     25.43219   -2.6682138   -2.5663054   -120.32876    1214.4037 
  646000     34.65917   -2.6953646   -2.5564831   -197.48866    1210.3159 
  647000    33.368288   -2.6835817   -2.5498728   -2.4089969    1205.7509 
  648000    33.276778   -2.7058081   -2.5724659    -48.80968    1201.0821 
  649000    30.046823   -2.7216383   -2.6012387   -65.940072    1196.3697 
  650000    26.257813   -2.7151957    -2.609979     103.7954    1191.5974 
  651000    28.018021   -2.7005056   -2.5882356    326.59776    1187.0246 
  652000    37.396855   -2.6897757   -2.5399241    516.56041    1183.2556 
  653000     30.42218    -2.676313   -2.5544093    644.86125     1181.028 
  654000    32.370326   -2.7133519   -2.5836419    396.49407    1180.4274 
  655000    27.885058   -2.7090151   -2.5972779    406.41622    1181.1931 
  656000    28.085352   -2.7117417   -2.5992019    328.43749    1183.1283 
  657000    31.164207   -2.7109983   -2.5861213    259.55281     1186.076 
  658000    33.479425   -2.6711738   -2.5370196    460.99906    1190.0442 
  659000    29.130835   -2.6584977   -2.5417685    409.89165    1195.2741 
  660000    33.232686   -2.7128254   -2.5796599   -123.79772    1201.3985 
  661000    29.140049   -2.7058684   -2.5891024   -231.03882    1207.6058 
  662000    25.719409   -2.6861188   -2.5830595   -231.62289    1213.3214 
  663000    33.029668   -2.6947092   -2.5623572   -375.45802     1218.211 
  664000     35.34154    -2.656223   -2.5146072   -197.26035    1222.1977 
  665000    38.335258   -2.6619429    -2.508331   -288.82077    1225.4926 
  666000    26.589042   -2.6639208   -2.5573768   -406.14942     1227.907 
  667000    26.142795   -2.6693852   -2.5646293     -451.914    1228.8129 
  668000    35.151011   -2.7061297   -2.5652773   -671.96101     1227.943 
  669000    29.600563   -2.6813061   -2.5626947   -467.17123     1225.285 
  670000    30.021789   -2.6737124   -2.5534132   -304.50288    1221.0683 
  671000    37.372814   -2.6935073    -2.543752   -301.91109    1215.6836 
  672000    25.860424   -2.6642541   -2.5606297    12.823004    1209.5462 
  673000    30.499646   -2.7205644   -2.5983503   -203.43223    1202.8916 
  674000    30.687378   -2.7298747   -2.6069084   -103.32936    1195.7466 
  675000    29.423044   -2.7095147   -2.5916146    213.30134    1188.4806 
  676000    35.382525   -2.6841489   -2.5423688    579.52313    1181.8179 
  677000    33.993554   -2.6652395   -2.5290251    839.70781    1176.7642 
  678000    34.289699   -2.6938202   -2.5564192     713.6836    1173.8599 
  679000    30.014021   -2.7028224   -2.5825543     663.8454    1173.0551 
  680000    27.609421   -2.7189563   -2.6083235    503.96881    1174.1418 
  681000    26.613396   -2.7229482   -2.6163066    398.98093    1176.7989 
  682000    30.497464   -2.7168497   -2.5946444    361.65948    1180.7669 
  683000    33.473814   -2.6894568   -2.5553251    426.17889    1186.0405 
  684000    28.877378   -2.6768231   -2.5611095    331.68664    1192.6673 
  685000    26.702667   -2.6887429   -2.5817435    51.677841    1200.1659 
  686000    29.424964   -2.7083309   -2.5904232   -244.26165    1207.8084 
  687000    28.166995   -2.6984502   -2.5855832   -344.38183    1214.9423 
  688000    31.075838   -2.7014135   -2.5768906   -492.58363    1221.1227 
  689000     27.81949   -2.6782197   -2.5667452   -466.15519    1226.0069 
  690000    30.315135   -2.6740595   -2.5525848   -502.52575    1229.3557 
  691000    37.695788   -2.6824404   -2.5313909   -563.17335    1231.0926 
  692000    38.994794   -2.6584383   -2.5021837   -396.01867    1231.3356 
  693000    30.201658   -2.6470495   -2.5260295   -317.67077    1230.3554 
  694000    26.505143   -2.6763216   -2.5701138   -492.22775    1227.9143 
  695000    29.418662   -2.6952967   -2.5774142   -514.78588    1223.6861 
  696000    29.075288   -2.6885064   -2.5719999   -334.92595    1217.7938 
  697000    30.326027   -2.6663954   -2.5448771   -4.5499903    1210.7261 
  698000    39.985744   -2.6772772   -2.5170517    115.16869    1203.2821 
  699000    35.525173   -2.7066368   -2.5642852    70.094326    1196.2224 
  700000    27.184495    -2.702637    -2.593707    226.78445    1189.5963 
  701000    31.113893    -2.723242   -2.5985666    240.74812    1183.4774 
  702000    36.760934   -2.7391865   -2.5918831    285.51181     1178.264 
  703000    30.430348   -2.6955999   -2.5736635    687.02823    1174.4095 
  704000    26.699204   -2.6601834    -2.553198    975.66443    1172.4362 
  705000    31.061694   -2.6972711   -2.5728049    715.41263    1172.7045 
  706000    18.637173   -2.6882136   -2.6135333    668.29744         1175 
  707000    27.652676   -2.7270068   -2.6162008     323.0907    1178.7699 
  708000    33.471639   -2.7302801   -2.5961571    197.08053    1183.7088 
  709000     27.12359   -2.6771733   -2.5684874    421.02102    1189.7249 
  710000    34.592533    -2.705067   -2.5664525    65.115634    1196.7205 
  711000    30.618468   -2.6963953   -2.5737051   -73.218246    1204.2672 
  712000    28.328775   -2.6948921   -2.5813769   -229.91654    1211.7549 
  713000    26.828764   -2.6925498   -2.5850452   -392.21692    1218.5543 
  714000    29.270111   -2.6831546   -2.5658674   -432.85085    1224.1729 
  715000    33.114903   -2.6611244   -2.5284309   -361.50786    1228.4455 
  716000      29.1742   -2.6448019    -2.527899   -316.62934    1231.4674 
  717000    27.690181   -2.6763874   -2.5654311   -602.82008    1233.0337 
  718000    26.452338   -2.6882022    -2.582206   -675.76174    1232.5842 
  719000    27.559429   -2.6855066   -2.5750742   -594.23001    1229.9019 
  720000     25.22982   -2.6613287   -2.5602312   -310.97483     1225.211 
  721000    35.046115   -2.6870818   -2.5466497   -332.77639    1219.0129 
  722000    35.592315   -2.6977984   -2.5551777   -242.49406    1211.8587 
  723000    28.650899   -2.7139161   -2.5991101   -201.49698    1204.1118 
  724000     23.38424   -2.7057691   -2.6120669    29.038414    1195.8443 
  725000    28.461011    -2.708871   -2.5948258     244.8155    1187.4669 
  726000    39.635152   -2.7173407   -2.5585201    410.41287    1179.7896 
  727000    33.256256   -2.6894894   -2.5562295    746.21796    1173.7417 
  728000    27.198949   -2.7006885   -2.5917006    748.05218    1169.7886 
  729000    26.931188   -2.7104998   -2.6025848    735.06102     1167.872 
  730000    31.929864   -2.7263613   -2.5984162    631.50074    1167.9976 
  731000    26.424991   -2.6948266   -2.5889399    790.37811    1170.2064 
  732000    31.534093   -2.7036237   -2.5772645    625.05286    1174.4794 
  733000    30.622392   -2.6921222   -2.5694163    542.38187    1180.6661 
  734000    34.020698   -2.7163757   -2.5800525    190.86391    1188.4199 
  735000    22.907578   -2.7016347   -2.6098426    32.049201    1197.0793 
  736000    20.628432    -2.699599   -2.6169395    -176.7096    1205.7312 
  737000    30.460612   -2.7025061   -2.5804484   -343.18667    1213.6614 
  738000    29.721102   -2.6701575   -2.5510631    -263.2995    1220.7151 
  739000    33.153299   -2.6861238   -2.5532764   -503.03206    1226.7714 
  740000    26.294793   -2.6735297   -2.5681648   -543.32532     1231.395 
  741000    25.514866   -2.6894238   -2.5871841   -716.71569    1234.0894 
  742000     28.96676    -2.716427   -2.6003553   -911.00301    1234.4078 
  743000    24.811994   -2.6796997   -2.5802764   -611.47357     1232.156 
  744000    33.074576   -2.6761032   -2.5435712   -467.45055    1227.7491 
  745000    33.936162   -2.6776038   -2.5416194   -343.23254    1221.8653 
  746000    28.075683   -2.6826497   -2.5701486   -232.36264    1214.9149 
  747000    28.152394   -2.7127397   -2.5999313    -266.8135    1207.0692 
  748000     31.31006   -2.7273847   -2.6019232     -155.703    1198.5317 
  749000    28.353504   -2.7072357   -2.5936213    187.24263    1189.8576 
  750000    29.296306   -2.7029167   -2.5855245    424.39031    1181.7437 
  750001    29.324672   -2.7030215   -2.5855156     423.8281    1181.7361 
Loop time of 93.9595 on 1 procs for 250000 steps with 32 atoms

Performance: 229.886 ns/day, 0.104 hours/ns, 2660.722 timesteps/s
98.5% CPU use with 1 MPI tasks x 1 OpenMP threads

MPI task timing breakdown:
Section |  min time  |  avg time  |  max time  |%varavg| %total
---------------------------------------------------------------
Pair    | 86.534     | 86.534     | 86.534     |   0.0 | 92.10
Neigh   | 0          | 0          | 0          |   0.0 |  0.00
Comm    | 5.6935     | 5.6935     | 5.6935     |   0.0 |  6.06
Output  | 0.0040118  | 0.0040118  | 0.0040118  |   0.0 |  0.00
Modify  | 1.0565     | 1.0565     | 1.0565     |   0.0 |  1.12
Other   |            | 0.6713     |            |       |  0.71

Nlocal:        32.0000 ave          32 max          32 min
Histogram: 1 0 0 0 0 0 0 0 0 0
Nghost:        4599.00 ave        4599 max        4599 min
Histogram: 1 0 0 0 0 0 0 0 0 0
Neighs:        19146.0 ave       19146 max       19146 min
Histogram: 1 0 0 0 0 0 0 0 0 0

Total # of neighbors = 19146
Ave neighs/atom = 598.31250
Neighbor list builds = 0
Dangerous builds = 0

unfix 1
unfix 2

next i
jump SELF loop

variable Tanneal equal ${Tmin}+(${i}-1)*${Tstep}
variable Tanneal equal 10+(${i}-1)*${Tstep}
variable Tanneal equal 10+(4-1)*${Tstep}
variable Tanneal equal 10+(4-1)*10
variable STEP equal step
variable T equal temp
variable PE equal pe
variable Eperatom equal pe/atoms
variable LAT equal (vol)^(1/3)/2

if "${i} == 1" then   "velocity all create ${Tanneal} 5534 dist gaussian"
fix 1 all npt temp ${Tanneal} ${Tanneal} 1 iso 0 0 100.0
fix 1 all npt temp 40 ${Tanneal} 1 iso 0 0 100.0
fix 1 all npt temp 40 40 1 iso 0 0 100.0
fix 2 all print 1000 "${STEP} ${T} ${PE} ${Eperatom} ${LAT}" file 2_${Tanneal}.dat screen no
fix 2 all print 1000 "${STEP} ${T} ${PE} ${Eperatom} ${LAT}" file 2_40.dat screen no

run 250000
Per MPI rank memory allocation (min/avg/max) = 3.155 | 3.155 | 3.155 Mbytes
Step Temp PotEng TotEng Press Volume 
  750001    29.324672   -2.7030215   -2.5855156     423.8281    1181.7361 
  751000    32.883002   -2.6883142   -2.5565499    536.23978    1182.1927 
  752000    35.792601   -2.6608433     -2.51742    681.70389    1183.8032 
  753000    38.276596   -2.6586375   -2.5052607     642.4768    1186.8104 
  754000    47.877998   -2.6915866   -2.4997364     343.8827    1191.1868 
  755000    41.822441   -2.6682969   -2.5007117    339.20035    1196.7627 
  756000     39.77264   -2.6692005    -2.509829    188.67045    1203.2588 
  757000    35.324469   -2.6618647   -2.5203172    48.306356    1210.2745 
  758000     38.46468   -2.6683252   -2.5141948   -134.73957    1217.3514 
  759000    41.126911   -2.6382066   -2.4734084   -88.343343    1224.2101 
  760000    43.701216   -2.6143711   -2.4392575   -61.992635    1230.8753 
  761000    39.912272   -2.6144891    -2.454558   -205.40667    1237.3163 
  762000     30.87684   -2.6387938   -2.5150683   -530.95202     1243.051 
  763000    32.180702   -2.6464661    -2.517516   -690.35591    1247.3154 
  764000    41.443723   -2.6535141   -2.4874465   -748.54775    1249.8226 
  765000    42.640346   -2.6242291   -2.4533665    -533.4101    1250.7419 
  766000    36.719784   -2.5889434   -2.4418049   -327.31781    1250.3352 
  767000    40.534794   -2.6146654   -2.4522399   -455.81614     1248.763 
  768000    32.254558   -2.6432791    -2.514033   -636.04249    1245.9234 
  769000    36.298832   -2.6743682   -2.5289165   -752.13179    1241.4552 
  770000    35.780253   -2.6436284   -2.5002546   -387.09102    1235.4324 
  771000    43.358321   -2.6476771   -2.4739375   -225.32406    1228.4058 
  772000    43.586909    -2.645783   -2.4711275   -51.882173    1220.9678 
  773000    39.281649   -2.6451694   -2.4877653    109.77828    1213.5121 
  774000    35.171963   -2.6781855   -2.5372492    26.363196    1206.2488 
  775000    32.975496   -2.7035076   -2.5713726    15.114441    1199.1312 
  776000     31.73592   -2.6777748    -2.550607    367.54413    1192.2552 
  777000    40.946964   -2.6822301   -2.5181529    523.52393    1186.1466 
  778000    45.163712   -2.6774662   -2.4964923    686.73247    1181.3679 
  779000    38.790659   -2.6497472   -2.4943106    932.73104    1178.3363 
  780000    37.845446   -2.6875467   -2.5358976    688.06636    1177.2156 
  781000    38.342529   -2.7280781   -2.5744371    381.35047    1177.6994 
  782000    36.395887   -2.7009711   -2.5551304    523.11864    1179.4639 
  783000    36.444066   -2.6639039   -2.5178702    717.04845    1182.5748 
  784000    42.172483   -2.6743542   -2.5053664    539.93688    1187.1647 
  785000    40.950185   -2.6680305   -2.5039405    435.35443    1193.1014 
  786000    40.995049   -2.6685558    -2.504286    256.68066    1200.1124 
  787000    42.326356   -2.6659044      -2.4963    104.01873    1207.8532 
  788000    39.486473   -2.6380629    -2.479838    102.04592    1215.9827 
  789000    41.116195   -2.6311061   -2.4663508   -42.834114    1224.2516 
  790000    49.633272   -2.6689589   -2.4700752   -446.68054    1232.3489 
  791000    37.055562   -2.6459031   -2.4974191   -505.20812    1239.8247 
  792000    39.220361   -2.6722863   -2.5151277   -819.35224    1246.1266 
  793000    35.035267   -2.6283978   -2.4880092   -612.23025    1250.7701 
  794000    39.986259   -2.5924691   -2.4322416   -386.99417    1253.7878 
  795000     40.95902   -2.5937796   -2.4296542   -457.19167    1255.5118 
  796000    44.571373   -2.6346078   -2.4560074   -719.21253    1255.8952 
  797000    28.810814   -2.6092263   -2.4937795   -587.35792    1254.6543 
  798000    33.136716   -2.6507515   -2.5179705   -796.68919     1251.552 
  799000    38.014033   -2.6815955   -2.5292708   -880.07903    1246.4854 
  800000    37.518296   -2.6398275   -2.4894893   -453.59399    1239.6885 
  801000    38.400182   -2.6065225   -2.4526505   -25.138338    1231.8153 
  802000    39.401433   -2.6125126   -2.4546286    103.95845      1223.59 
  803000    43.440991   -2.6726805   -2.4986096   -114.55411    1215.4099 
  804000    36.605412   -2.6780127   -2.5313324   -6.8201942    1207.2966 
  805000    32.646673   -2.6571283   -2.5263109    327.77276     1199.383 
  806000      37.0779   -2.6596332   -2.5110597    508.01285    1192.1041 
  807000      44.5659   -2.6794281   -2.5008496    534.28839    1185.9561 
  808000    36.545424   -2.6502196   -2.5037798    844.64676    1181.2956 
  809000    30.757697   -2.6616745   -2.5384265    821.32432    1178.3336 
  810000    27.980019   -2.6961427    -2.584025    590.82319    1176.8968 
  811000    34.117794   -2.6985358   -2.5618236    598.07809    1176.6966 
  812000    38.930524   -2.6753297   -2.5193326    755.81092    1177.8906 
  813000    37.358657    -2.651679   -2.5019805    835.24872    1180.7549 
  814000    39.710237   -2.6604363   -2.5013148    664.85923    1185.3011 
  815000    41.992671   -2.6850543    -2.516787    348.93221    1191.2946 
  816000    39.138515   -2.7117996   -2.5549691    -27.71408    1198.2383 
  817000    26.133691    -2.665121   -2.5604016    96.761646    1205.4804 
  818000    35.367557   -2.6502783   -2.5085583    78.635515    1212.6331 
  819000    39.863569   -2.6417184   -2.4819825   -16.726778    1219.7278 
  820000    31.216808   -2.6026008    -2.477513    71.224185    1226.6699 
  821000    38.249721   -2.6325436   -2.4792745   -250.90535    1233.1993 
  822000    35.495663   -2.6336662   -2.4914328   -401.13856    1238.9626 
  823000    38.178456   -2.6583351   -2.5053515   -675.46048    1243.5508 
  824000    37.841129   -2.6419803   -2.4903485   -607.82974    1246.6461 
  825000    40.302099   -2.6035073   -2.4420142   -366.78188    1248.2541 
  826000     43.16033   -2.5979437   -2.4249975   -317.57093    1248.7397 
  827000    44.196674   -2.6306249    -2.453526   -526.28749    1248.2595 
  828000    34.441567   -2.6342838   -2.4962742    -552.3338    1246.5866 
  829000    33.566441   -2.6382463   -2.5037434   -518.36691    1243.4462 
  830000    39.474544   -2.6496882   -2.4915111   -476.27281    1238.9334 
  831000    44.324509   -2.6451651    -2.467554   -321.35965    1233.3844 
  832000    39.320062   -2.6065983   -2.4490403     43.84165    1227.2918 
  833000    39.597168   -2.6254912   -2.4668228    54.824182    1221.1431 
  834000     33.27769   -2.6582269    -2.524881   -35.113492    1215.0392 
  835000    34.114579   -2.6697668   -2.5330675     11.77738     1208.833 
  836000    35.521091   -2.6516785   -2.5093432    298.49835    1202.7221 
  837000    47.527657   -2.6603275   -2.4698811    417.26772    1197.2256 
  838000    43.461114   -2.6317648   -2.4576133    715.97737    1192.9018 
  839000    37.357233   -2.6707023   -2.5210095     501.8969    1190.0256 
  840000    29.145278   -2.6679754   -2.5511884    504.52625    1188.2861 
  841000    42.180066   -2.7084307   -2.5394125    297.69296    1187.4758 
  842000    44.258373   -2.6727771    -2.495431     553.2147    1187.7309 
  843000    43.829278      -2.6519   -2.4762733    638.26659    1189.3603 
  844000    42.005091   -2.6644698   -2.4961527    491.77462    1192.4301 
  845000     30.50579   -2.6778875   -2.5556488    256.12728    1196.5877 
  846000    30.898512    -2.693682   -2.5698697    31.280829    1201.1588 
  847000     31.12735   -2.6701194   -2.5453901    98.689755    1205.7416 
  848000    40.578487   -2.6707751   -2.5081745    -7.618383     1210.323 
  849000    32.109722   -2.6098397   -2.4811739    295.24419    1214.9831 
  850000     52.14198   -2.6808959   -2.4719596   -213.77983    1219.7559 
  851000    38.942506   -2.6485405   -2.4924954   -164.99831    1224.4654 
  852000     36.26091   -2.6883171   -2.5430173   -540.81329    1228.6758 
  853000    31.357375     -2.66346    -2.537809   -456.21207    1231.7968 
  854000    41.730839   -2.6596803   -2.4924622   -463.54704    1233.7254 
  855000     43.87352   -2.6490169   -2.4732129   -377.90045    1234.7445 
  856000    42.544584   -2.6403085   -2.4698296    -328.9818    1235.0049 
  857000    36.975407   -2.6246329   -2.4764701   -224.73608    1234.5584 
  858000    43.063545   -2.6784956   -2.5059372   -568.76099     1233.344 
  859000     36.52562   -2.6791989   -2.5328384   -551.73171    1231.1841 
  860000    32.539761   -2.6473706   -2.5169817   -255.34511    1227.9572 
  861000    44.313399    -2.637547   -2.4599804   -59.857051     1224.035 
  862000     43.21158   -2.6300693   -2.4569177    52.916112    1220.0312 
  863000    47.239146    -2.676639   -2.4873487   -160.40011     1216.161 
  864000    35.654249   -2.6609986   -2.5181298      7.98003    1212.3671 
  865000    34.323212    -2.662038   -2.5245027     84.00038    1208.5841 
  866000    47.011079   -2.6595294   -2.4711529    214.90318    1204.9606 
  867000    51.384083   -2.6320774   -2.4261781    486.18369    1202.1285 
  868000    40.521065   -2.6393497   -2.4769791    434.22636     1200.551 
  869000    39.118819   -2.6743702   -2.5176185    215.31789    1199.9051 
  870000    45.304949   -2.7083208   -2.5267809   -3.3290184    1199.8621 
  871000    28.992295   -2.6267146   -2.5105406    518.86117    1200.3188 
  872000    47.853184   -2.6431103   -2.4513595    427.00301      1201.43 
  873000      49.9286   -2.6416398   -2.4415726    386.93926    1203.5845 
  874000    43.577265   -2.6564594   -2.4818425    203.18643    1206.7429 
  875000    42.648839   -2.6686942   -2.4977975    25.635857     1210.461 
  876000    36.675019   -2.6512954   -2.5043362    36.865977    1214.3674 
  877000    40.405378   -2.6651613   -2.5032543   -151.20892    1218.1861 
  878000    35.872977   -2.6174636   -2.4737183    107.32679    1221.7656 
  879000    47.638101   -2.6216357   -2.4307467    36.913454     1225.207 
  880000    39.690301    -2.609298   -2.4502564     12.07568    1228.6562 
  881000     40.96455   -2.6687276   -2.5045801   -438.58757    1231.8049 
  882000    35.019094   -2.6482878    -2.507964   -405.16244    1234.0612 
  883000    39.322744   -2.6438205   -2.4862517   -391.45008    1235.2724 
  884000    46.206752   -2.6430549   -2.4579015   -353.86951    1235.5561 
  885000    41.584539   -2.6110386   -2.4444066   -163.31776    1235.1475 
  886000    37.654671   -2.6297828   -2.4788981   -249.30014    1234.1983 
  887000    35.266473   -2.6633275   -2.5220124   -457.65943    1232.4832 
  888000    31.293747   -2.6453288   -2.5199327   -287.91758    1229.7297 
  889000    44.055887   -2.6541787   -2.4776439   -238.24325    1226.1044 
  890000    44.577197   -2.6301747    -2.451551    40.803208    1222.1592 
  891000    35.868262   -2.6123352   -2.4686087    201.69722    1218.3124 
  892000    43.037403   -2.6626458   -2.4901922   -33.192764    1214.6492 
  893000    42.284552   -2.6678568   -2.4984199     20.36611    1211.1205 
  894000    42.182558   -2.6696907   -2.5006624    66.487525     1207.852 
  895000    36.511557    -2.649014   -2.5027098    260.82761    1204.9619 
  896000    39.537442   -2.6698507   -2.5114216    182.48049    1202.5603 
  897000    38.317758   -2.6755842   -2.5220425    182.00224    1200.7065 
  898000    38.761145   -2.6766068   -2.5212884    212.04816      1199.38 
  899000    40.993042    -2.660157   -2.4958953     361.1633    1198.6553 
  900000    47.290135   -2.6507305   -2.4612358    446.22926    1198.7804 
  901000    45.010956   -2.6454376   -2.4650758    455.03851    1200.0132 
  902000    29.518793     -2.65112   -2.5328362      283.097    1202.1777 
  903000    38.908233   -2.6972486   -2.5413408   -61.730053    1204.6944 
  904000     35.85356   -2.6593909   -2.5157233    140.98685    1207.2987 
  905000    38.497642   -2.6340521   -2.4797896    255.46838    1210.1032 
  906000    45.584615   -2.6577239   -2.4750634    37.549269     1213.248 
  907000    37.430628    -2.635024    -2.485037    87.667392    1216.6067 
  908000     43.01539   -2.6646206   -2.4922551   -175.17354    1219.9538 
  909000    43.853363   -2.6716919   -2.4959686   -285.21304    1223.0501 
  910000    40.208581   -2.6580579   -2.4969395   -259.03528    1225.7032 
  911000    47.111716   -2.6724146   -2.4836349   -381.41977    1227.8087 
  912000    45.932116   -2.6459416   -2.4618886   -250.43636    1229.3712 
  913000    38.534309   -2.6101502   -2.4557408   -46.037794     1230.503 
  914000    47.673215   -2.6743748   -2.4833452   -461.59762    1231.2035 
  915000     36.52659    -2.669923   -2.5235586   -485.17259    1231.1897 
[...]
 2251000    95.178008   -2.3923048   -2.0109204    226.54979    1301.8434 
 2252000    130.53999   -2.3945004   -1.8714182    309.46851    1302.2438 
 2253000    107.22417   -2.2760666   -1.8464124    1007.1887    1303.4601 
 2254000    98.226108   -2.2922363   -1.8986379    840.49584    1305.6161 
 2255000    114.56841   -2.4056584   -1.9465754     78.18889    1308.5588 
 2256000    102.19211   -2.4044825   -1.9949921   -6.2145447    1311.9715 
 2257000    88.605641   -2.3827974   -2.0277489    62.297303    1315.6174 
 2258000    81.787742    -2.338138   -2.0104092    229.18475    1319.3411 
 2259000    103.74556   -2.3178132    -1.902098    343.38503    1323.1823 
 2260000    119.64488   -2.3140963   -1.8346716    427.38595    1327.4541 
 2261000    108.13407   -2.3308919   -1.8975917    173.05147    1332.2726 
 2262000    96.661367   -2.3873189   -1.9999906   -389.52222    1337.4406 
 2263000    70.727328    -2.297391   -2.0139821    69.269248    1342.4831 
 2264000    103.49063   -2.2626948   -1.8480012    265.42075    1347.2804 
 2265000    107.40326   -2.2173717   -1.7869999     497.8434    1352.3166 
 2266000    92.534675   -2.2438688   -1.8730764    250.64217    1357.7916 
 2267000     89.82698   -2.3137137   -1.9537712   -350.02135    1363.3175 
 2268000    87.431049   -2.2914424   -1.9411005    -302.0539    1368.5965 
 2269000    114.56662   -2.2711814   -1.8121056     -149.601    1373.5924 
 2270000    115.62905   -2.2275889   -1.7642558    127.59426    1378.6618 
 2271000    107.35968   -2.2407558   -1.8105586    -119.1262    1383.9586 
 2272000    94.314426   -2.2344525   -1.8565285   -81.510225    1389.2836 
 2273000    84.923002   -2.2163917   -1.8760998   -157.68735    1394.3855 
 2274000    104.43861   -2.1795983   -1.7611061    182.78962    1399.1635 
 2275000    124.11198   -2.1423498   -1.6450251     345.1499    1404.0397 
 2276000    95.416775   -2.1320181   -1.7496769     248.2307    1409.2794 
 2277000    100.97039   -2.2408465   -1.8362516   -560.33306    1414.5203 
 2278000     95.44354   -2.2264235   -1.8439751   -492.19413    1419.3503 
 2279000    78.034207   -2.1110134   -1.7983253    159.10988    1423.6311 
 2280000    126.57064   -2.1317917    -1.624615    127.20363    1427.5878 
 2281000    107.23978   -2.0687332   -1.6390165    447.73843     1431.678 
 2282000    106.91271   -2.1439323   -1.7155262   -172.16305    1435.9293 
 2283000    81.432631   -2.0988191   -1.7725133   -12.524425    1440.0005 
 2284000    95.748014   -2.1646991   -1.7810306   -351.54079    1443.6962 
 2285000    112.16107   -2.1332477   -1.6838111   -186.73608    1446.9932 
 2286000    134.52319   -2.0715723   -1.5325292    127.46704    1450.1898 
 2287000    108.74662   -2.0487097    -1.612955    211.98534    1453.7572 
 2288000     79.16406   -1.9980549   -1.6808394    383.72759    1457.5612 
 2289000    109.38131   -2.1184847   -1.6801867   -325.03893    1461.4291 
 2290000    113.44311   -2.1664607   -1.7118868   -712.71053    1464.9978 
 2291000    87.942569   -2.1629423   -1.8105507   -741.08775    1467.9607 
 2292000    68.389793   -2.1399931   -1.8659508   -739.60969      1470.01 
 2293000    76.159027   -2.0659219   -1.7607478   -158.80077    1470.8401 
 2294000    90.861808   -2.0101839   -1.6460947    240.08952    1471.0657 
 2295000    106.25625   -2.0356806    -1.609905    42.730066     1471.225 
 2296000     96.51507   -2.0729624   -1.6862203   -122.25322    1471.1812 
 2297000    96.167159   -2.1422875   -1.7569395   -659.47294    1470.8342 
 2298000    92.575042   -2.1152132    -1.744259    -451.6947     1469.883 
 2299000    121.23078   -2.0622231   -1.5764435   -50.544814    1468.3265 
 2300000    97.865379   -1.9487739    -1.556621    678.63897    1466.7149 
 2301000    97.577382   -1.9841899    -1.593191    527.96791    1465.7767 
 2302000     91.84109   -1.9725973   -1.6045841    575.87776    1465.5696 
 2303000    87.925962   -1.9347793   -1.5824543    868.16896    1466.1894 
 2304000    123.63236   -2.0291469   -1.5337441    398.67709     1467.831 
 2305000    112.47736   -2.0223693   -1.5716653    288.68152    1470.3909 
 2306000     102.0157    -2.094039   -1.6852555   -288.38639     1473.654 
 2307000     74.56154   -2.0316368   -1.7328639    136.74605    1477.0078 
 2308000    104.84875    -2.021449   -1.6013134    183.44211    1480.3512 
 2309000    98.421796   -1.8929914   -1.4986089    786.61555    1484.1611 
 2310000    116.28879   -1.9938761   -1.5278994    157.66797    1488.8317 
 2311000    83.190373   -1.9520377   -1.6186885    443.44162    1494.0415 
 2312000    87.812498   -1.9855614   -1.6336911    176.32319    1499.6945 
 2313000    104.30888    -2.008978   -1.5910056   -12.620826     1505.432 
 2314000    117.84992   -1.9195226   -1.4472904    408.34256    1511.4975 
 2315000    101.64729     -1.83937   -1.4320628    736.17392    1518.3328 
 2316000    100.20202   -1.9133097   -1.5117937    242.64263    1526.0534 
 2317000    79.038349   -1.9278637    -1.611152    101.42084    1534.1771 
 2318000    103.20304    -2.040067   -1.6265257   -559.89465    1542.2456 
 2319000    112.15339   -1.8768845   -1.4274786     534.5215    1550.0917 
 2320000    124.34373   -1.8952077   -1.3969544    245.75921    1558.4536 
 2321000    95.151534   -1.9014012   -1.5201228   -96.178661    1567.3108 
 2322000    85.846272   -1.9201183   -1.5761267   -330.12795    1576.0685 
 2323000    103.42548   -1.9404918   -1.5260592   -328.58415    1584.4687 
 2324000    104.31129   -1.8140004   -1.3960183    346.41295    1592.7373 
 2325000    106.60458   -1.8081692   -1.3809977    248.65982    1601.3308 
 2326000    99.465112   -1.8268452   -1.4282821   -105.30478    1610.1659 
 2327000    91.251901   -1.8087418   -1.4430895    160.63427    1619.0858 
 2328000    106.83657   -1.7949946   -1.3668935     65.49863    1628.0507 
 2329000    124.58308   -1.7871885   -1.2879761    218.89576     1637.063 
 2330000    97.862631    -1.801045   -1.4089031   -90.292571     1646.356 
 2331000    87.518159   -1.8335964   -1.4829055   -445.25075    1655.2937 
 2332000    96.778181   -1.8210997   -1.4333033   -287.18695    1663.6288 
 2333000     117.2537   -1.8245381    -1.354695   -294.94261    1671.5877 
 2334000    124.15582   -1.8242721   -1.3267717   -517.78166    1679.4546 
 2335000    92.970522   -1.7287096   -1.3561707    8.7348841    1686.9738 
 2336000    97.301948   -1.7456861   -1.3557909   -35.687902    1694.1516 
 2337000    99.353134   -1.7250917   -1.3269773   -87.444074    1701.2507 
 2338000    104.59374   -1.6874203   -1.2683064    60.371884    1708.2933 
 2339000    111.94627   -1.6062136   -1.1576377    456.71178    1715.2994 
 2340000    102.85021    -1.646936   -1.2348085    397.83923    1722.6616 
 2341000    94.262083   -1.7425515   -1.3648372     -497.919    1730.1969 
 2342000    107.30196   -1.7796358     -1.34967   -753.34746    1737.0689 
 2343000    93.515713   -1.6615779   -1.2868544   -101.38735    1743.0698 
 2344000     131.3411   -1.7280335   -1.2017412   -371.14653     1748.485 
 2345000    104.34381   -1.6796224     -1.26151   -272.96198    1753.4789 
 2346000    84.163696   -1.7103621   -1.3731127   -188.55643    1758.0056 
 2347000    77.426212   -1.6677119     -1.35746   -46.031923    1761.9399 
 2348000    118.67074   -1.7133175   -1.2377962   -430.09169    1765.3981 
 2349000    114.35235   -1.6596891   -1.2014719    9.0882936    1768.5198 
 2350000    100.10424   -1.6540328   -1.2529086   -122.00268    1771.5688 
 2351000    108.02703   -1.7056139   -1.2727426    -215.1516    1774.4082 
 2352000    95.879995   -1.6897024   -1.3055051   -203.29532    1776.8007 
 2353000    96.932551    -1.726513    -1.338098   -681.24162    1778.7708 
 2354000    95.042857    -1.732255   -1.3514121   -668.33834     1779.775 
 2355000    98.069513   -1.6542928   -1.2613219   -181.50704    1779.7856 
 2356000    116.83218   -1.6410676   -1.1729135   -119.41541     1779.306 
 2357000    115.55818     -1.67086   -1.2078109    -349.4152    1778.8203 
 2358000    81.422396   -1.6592594   -1.3329946   -319.07236    1777.9233 
 2359000    94.819935   -1.7199695   -1.3400199   -733.25292    1776.2148 
 2360000    88.156325   -1.6576619   -1.3044138    20.280309    1773.3755 
 2361000    109.83132   -1.7101274   -1.2700262   -320.99016    1770.0762 
 2362000    103.79746   -1.6922007   -1.2762776   -396.02837    1766.3135 
 2363000    89.370886   -1.6869271   -1.3288122   -470.59915    1761.9805 
 2364000    77.802755    -1.715687   -1.4039264   -622.17533    1756.7853 
 2365000    88.225541   -1.7374636   -1.3839382   -538.91832    1750.2775 
 2366000    104.72526   -1.6816685   -1.2620277    -167.5112     1742.764 
 2367000     103.3694   -1.6438244   -1.2296166    158.72889    1734.8562 
 2368000    103.61576   -1.7202593   -1.3050643   -233.51208     1726.883 
 2369000    91.424204   -1.7217037   -1.3553611    -211.1337    1718.5794 
 2370000    103.49871   -1.7653802   -1.3506541   -178.52663    1709.7785 
 2371000    112.26516   -1.7868892   -1.3370355   -572.06189    1700.7619 
 2372000    96.200898    -1.752499   -1.3670158   -106.10586    1691.2712 
 2373000    105.24363   -1.8196658   -1.3979478   -552.28628    1681.5565 
 2374000    82.536298   -1.7488655   -1.4181373    28.745621    1671.4306 
 2375000    102.79825    -1.763942   -1.3520228     87.44055    1661.1794 
 2376000    127.27631   -1.7922337   -1.2822293   -98.936795     1651.035 
 2377000    104.94944   -1.8204146   -1.3998754    -268.5077    1641.0644 
 2378000    89.313796   -1.8475643   -1.4896781   -298.23602    1630.9464 
 2379000    102.64164   -1.8910008   -1.4797091   -352.77611    1620.4799 
 2380000    117.19578   -1.9121128   -1.4425017    -309.8454    1609.8404 
 2381000    110.05744   -1.8529663    -1.411959   -41.943326    1599.2288 
 2382000    117.94275   -1.7637715   -1.2911673    659.33929    1589.1642 
 2383000    111.72898   -1.8017495   -1.3540443    363.20791    1580.0997 
 2384000    87.045676   -1.8289857    -1.480188    365.72631    1571.7294 
 2385000    87.413684   -1.8547028   -1.5044306    272.07353    1563.7703 
 2386000    85.283844   -1.8339772   -1.4922394     334.8241    1556.1601 
 2387000    111.25369   -1.9248493   -1.4790486   -3.2602688    1548.7765 
 2388000    110.12219   -1.9055727    -1.464306    189.20509    1541.8164 
 2389000    88.986775   -1.8456509   -1.4890752    581.99466    1535.4229 
 2390000    94.422838    -1.933041   -1.5546826    222.08594    1529.5914 
 2391000    89.752764   -1.9879577   -1.6283126   -125.00096    1524.1352 
 2392000    85.437044   -1.9886232   -1.6462715   -51.624727    1518.6027 
 2393000    90.674405   -1.8813308   -1.5179927    622.01832    1513.0092 
 2394000    120.01631   -1.9201252   -1.4392121    455.85588    1507.9362 
 2395000    104.41483   -1.9515949   -1.5331979    385.11672    1503.6193 
 2396000     92.56829   -1.9917627   -1.6208356      81.8774    1499.7753 
 2397000    76.099282   -1.8970261   -1.5920914    685.92959    1496.3381 
 2398000    98.487178   -1.9235961   -1.5289516    588.43675    1493.5037 
 2399000    100.58119    -1.908965   -1.5059297    695.18841    1491.4508 
 2400000    98.271493   -1.9515953   -1.5578151    460.00095    1490.1941 
 2401000    91.755183   -2.0624428   -1.6947738   -322.99516    1489.6245 
 2402000    95.530043   -2.0790975   -1.6963025   -303.07478    1489.0636 
 2403000    98.589213    -2.003994   -1.6089407    131.26336    1488.2808 
 2404000    118.60832   -2.0028852    -1.527614    238.98488    1487.6184 
 2405000    102.73287   -1.9415142   -1.5298569    602.20575    1487.5597 
 2406000    81.294826   -2.0275528   -1.7017992    83.503175    1488.1491 
 2407000    66.626472   -2.0097682   -1.7427916    67.928456    1488.8437 
 2408000    73.009146   -1.9380584   -1.6455061     509.3471    1489.3581 
 2409000    106.18331   -1.9800191   -1.5545357    530.86136    1490.1401 
 2410000     97.41424   -1.9482693   -1.5579242    606.86138    1491.4961 
 2411000     105.4119   -1.9895947   -1.5672025    485.56329    1493.6781 
 2412000    97.839089   -2.0146291   -1.6225815    56.417275    1496.5359 
 2413000    75.378162   -1.9656808   -1.6636357    218.81248    1499.6117 
 2414000    95.469386    -1.979432     -1.59688    95.675164    1502.6951 
 2415000    110.86716   -1.9284257   -1.4841738    389.07967    1505.8435 
 2416000    123.90537   -1.9772096   -1.4807128    120.19023    1509.4568 
 2417000    73.656581   -1.8790462   -1.5838996    780.31163    1513.6295 
 2418000     85.50856   -2.0534031   -1.7107648   -270.37943    1518.0356 
 2419000     77.69532    -1.979136   -1.6678059   -96.574024    1522.1886 
 2420000    92.181209   -1.9508358   -1.5814598    72.366637    1526.0211 
 2421000    95.846495   -1.9072066   -1.5231435    292.46961    1529.7679 
 2422000    97.899868   -1.9082453   -1.5159542      214.832      1533.59 
 2423000    100.14578   -1.9390147   -1.5377241    24.509727    1537.6024 
 2424000    116.13643   -1.9669281    -1.501562   -113.70459    1541.8613 
 2425000    100.45519   -1.8845006   -1.4819702    233.72219    1546.1916 
 2426000    118.63922   -1.9590241   -1.4836291   -231.12148    1550.8333 
 2427000    106.62957   -1.9477441   -1.5204726   -159.21977    1555.5854 
 2428000    84.070631   -1.9166765   -1.5798001   -40.014191     1560.382 
 2429000    78.951348   -1.9350382    -1.618675   -121.55611    1564.8326 
 2430000    108.46412   -1.9548774   -1.5202547   -164.89233    1568.8757 
 2431000    97.359916   -1.8030981   -1.4129707    453.03673     1572.951 
 2432000    114.94997   -1.8668623   -1.4062503    176.22164    1577.5051 
 2433000     89.48441   -1.8620358    -1.503466   -20.304032    1582.2609 
 2434000    81.348485   -1.8785048   -1.5525361   -96.569768    1586.7911 
 2435000    94.514149   -1.8990234   -1.5202991   -77.855948    1590.8562 
 2436000    100.79812   -1.8807649   -1.4768603   -154.73406    1594.4975 
 2437000    128.61661   -1.7270817   -1.2117066    784.48122    1597.9787 
 2438000    120.47001    -1.745408   -1.2626769    731.84854    1602.3208 
 2439000    90.624137   -1.7955963   -1.4324595    294.27312    1607.4134 
 2440000    100.22194   -1.8729305   -1.4713347    -398.9976    1612.5474 
 2441000     90.64807   -1.8491328   -1.4859002   -163.19176    1617.1508 
 2442000    101.75783   -1.7902327   -1.3824825    189.67859    1621.5795 
 2443000    127.29916   -1.8143071   -1.3042111    74.655001    1626.2298 
 2444000    99.732263   -1.7651969   -1.3655633    246.33857    1631.2699 
 2445000     101.6848    -1.813097   -1.4056394   -103.92546    1636.5815 
 2446000    102.93423    -1.821223   -1.4087589   -269.91264     1641.837 
 2447000    95.546461   -1.7884676   -1.4056067   -128.72075    1646.7775 
 2448000     89.54457   -1.7491183   -1.3903074    49.920395    1651.4523 
 2449000    107.11065   -1.7989731   -1.3697738   -207.93228    1655.8592 
 2450000    93.480457   -1.7588985   -1.3843163   -129.45652    1659.9409 
 2451000    91.947649   -1.7547371   -1.3862969   -150.11647    1663.8752 
 2452000    95.615215   -1.7187693    -1.335633    302.02807    1667.5448 
 2453000    102.94659   -1.7007716    -1.288258    369.59135    1671.3511 
 2454000    104.26785   -1.7126615   -1.2948535    288.09891    1675.5119 
 2455000    94.193445   -1.7527485   -1.3753093   0.38754703    1680.0611 
 2456000    82.074883   -1.7889013    -1.460022   -355.58136    1684.5457 
 2457000    98.141402   -1.8275349   -1.4342759   -600.27624    1688.4338 
 2458000    106.27906   -1.7017057   -1.2758386    99.860622    1691.6356 
 2459000    113.20049   -1.7036787    -1.250077    133.90861     1694.988 
 2460000    93.992045   -1.6923394   -1.3157072    204.01184    1698.5229 
 2461000    87.421644   -1.7274885   -1.3771844   -249.75671    1702.0648 
 2462000    85.640886   -1.7701359   -1.4269673   -481.79683    1704.9374 
 2463000    84.536176   -1.8229349    -1.484193   -621.73629    1706.8132 
 2464000    76.173561   -1.7451529   -1.4399205   -479.37916    1707.6934 
 2465000    101.71828   -1.7213499   -1.3137582   -117.18781    1707.7446 
 2466000    101.60658   -1.7465882    -1.339444   -122.25647    1707.0976 
 2467000    86.178239   -1.7556174   -1.4102956   -338.14896    1705.7895 
 2468000     82.89029   -1.7481556   -1.4160088   -268.64184    1703.6428 
 2469000    115.28571   -1.7244938   -1.2625365   -55.176032    1700.7199 
 2470000    112.98853   -1.6764627   -1.2237104    194.46828     1697.577 
 2471000    106.63513    -1.767047   -1.3397532   -351.41752    1694.4353 
 2472000    93.326952   -1.7461393   -1.3721722   -183.82847    1690.9816 
 2473000    93.632964   -1.7442064   -1.3690131    152.78899    1687.2822 
 2474000    100.87599   -1.7519727   -1.3477561   -245.77198    1683.6428 
 2475000    139.10676   -1.7736494   -1.2162397   -102.66851    1679.9618 
 2476000    142.27868   -1.7909497   -1.2208299    116.19512     1676.664 
 2477000    74.570199    -1.711126   -1.4123184    114.03405    1673.8718 
 2478000    106.04421   -1.8440489   -1.4191229   -623.55785    1670.7096 
 2479000    90.058369   -1.7409061   -1.3800364    107.97615    1667.0631 
 2480000    114.87181   -1.7638877   -1.3035889    85.939732    1663.3848 
 2481000    97.643172   -1.7411859   -1.3499234     112.6598    1659.7643 
 2482000    86.696929   -1.8402476   -1.4928475   -287.71181    1656.1017 
 2483000    97.347453   -1.8803388   -1.4902612   -518.55817    1652.1065 
 2484000    98.093285   -1.8148521    -1.421786   -71.304504    1647.6954 
 2485000    112.38182   -1.8246991   -1.3743779   -314.54806    1643.1603 
 2486000    105.61808    -1.823764   -1.4005456   -111.42399    1638.4062 
 2487000    100.73192   -1.8397515   -1.4361122   -174.51053     1633.556 
 2488000    103.17405   -1.8719744   -1.4585493   -308.20124    1628.5638 
 2489000    107.36002   -1.9217055    -1.491507   -641.11771    1623.3834 
 2490000    82.442749   -1.8237727   -1.4934193   -184.16651    1617.8569 
 2491000    109.35789   -1.8308339   -1.3926298    38.957332    1612.2052 
 2492000    126.88532   -1.8477844   -1.3393467    108.75776    1606.9191 
 2493000     95.44646    -1.829787   -1.4473269    236.59775    1602.0737 
 2494000    91.970888   -1.8630998   -1.4945666    -106.8849      1597.69 
 2495000    85.120713   -1.8017841   -1.4606999    214.85354    1593.4609 
 2496000    100.10148   -1.8429259   -1.4418128    197.20152    1589.3877 
 2497000    104.23063   -1.8758526   -1.4581937    37.245016    1585.4358 
 2498000    101.83007   -1.9430687   -1.5350291   -415.16517    1581.5218 
 2499000    87.029673   -1.9754221   -1.6266886    -632.1864    1577.3787 
 2500000    73.483367   -1.9522985   -1.6578459   -508.03467    1572.6023 
 2500001    73.429551   -1.9520449    -1.657808   -507.01613    1572.5971 
Loop time of 70.6732 on 1 procs for 250000 steps with 32 atoms

Performance: 305.632 ns/day, 0.079 hours/ns, 3537.409 timesteps/s
99.2% CPU use with 1 MPI tasks x 1 OpenMP threads

MPI task timing breakdown:
Section |  min time  |  avg time  |  max time  |%varavg| %total
---------------------------------------------------------------
Pair    | 64.627     | 64.627     | 64.627     |   0.0 | 91.44
Neigh   | 0.39115    | 0.39115    | 0.39115    |   0.0 |  0.55
Comm    | 4.1442     | 4.1442     | 4.1442     |   0.0 |  5.86
Output  | 0.003861   | 0.003861   | 0.003861   |   0.0 |  0.01
Modify  | 0.98807    | 0.98807    | 0.98807    |   0.0 |  1.40
Other   |            | 0.519      |            |       |  0.73

Nlocal:        32.0000 ave          32 max          32 min
Histogram: 1 0 0 0 0 0 0 0 0 0
Nghost:        3418.00 ave        3418 max        3418 min
Histogram: 1 0 0 0 0 0 0 0 0 0
Neighs:        14442.0 ave       14442 max       14442 min
Histogram: 1 0 0 0 0 0 0 0 0 0

Total # of neighbors = 14442
Ave neighs/atom = 451.31250
Neighbor list builds = 970
Dangerous builds = 0

unfix 1
unfix 2

next i
jump SELF loop

Total wall time: 0:15:43
